       6
 i =   170176, time =   170176.000, E =       -54.0435990926
  H         0.3896137433        4.2587658334        1.2230411724
  H        -0.0616327970        6.1432891599       -0.5761509508
  I         0.1623990537        3.1162579229        2.4507567647
 Cl         0.5530885774        4.9933748652       -0.5436931415
  I        -2.7574760536        1.9133536523        1.1592516076
 Cl        -4.7725867806        1.2988511687       -0.1265562365
       6
 i =   170177, time =   170177.000, E =       -54.0435749146
  H         0.3789284460        4.2648618710        1.2211167617
  H        -0.0809364211        6.1301556188       -0.5603384541
  I         0.1598306815        3.1152229569        2.4497612815
 Cl         0.5528316610        4.9935681515       -0.5424121187
  I        -2.7542762791        1.9138247402        1.1602086195
 Cl        -4.7737707792        1.3007945520       -0.1280908132
       6
 i =   170178, time =   170178.000, E =       -54.0434536936
  H         0.3672421559        4.2712370475        1.2170450794
  H        -0.1023594470        6.1208149240       -0.5444152865
  I         0.1572529359        3.1141602105        2.4488018814
 Cl         0.5526647360        4.9937064316       -0.5412264401
  I        -2.7510814419        1.9143141476        1.1611549100
 Cl        -4.7749041684        1.3027124242       -0.1295628195
       6
 i =   170179, time =   170179.000, E =       -54.0432070415
  H         0.3540816587        4.2776332469        1.2110129026
  H        -0.1265721115        6.1143897912       -0.5277488563
  I         0.1545623001        3.1130301906        2.4478367846
 Cl         0.5525740357        4.9938117630       -0.5400870221
  I        -2.7477648186        1.9148413072        1.1621273753
 Cl        -4.7760255953        1.3046835762       -0.1310268783
       6
 i =   170180, time =   170180.000, E =       -54.0427965971
  H         0.3394816409        4.2834058278        1.2034671398
  H        -0.1526717323        6.1093993541       -0.5104357000
  I         0.1517671296        3.1118400538        2.4468655077
 Cl         0.5525351134        4.9939297911       -0.5389967877
  I        -2.7443386018        1.9154045831        1.1631216233
 Cl        -4.7771236322        1.3067032517       -0.1324727615
       6
 i =   170181, time =   170181.000, E =       -54.0422736650
  H         0.3238862857        4.2877479438        1.1951078604
  H        -0.1786632864        6.1039093421       -0.4930665178
  I         0.1489438823        3.1106265892        2.4459103639
 Cl         0.5525110681        4.9941187283       -0.5379817907
  I        -2.7408982560        1.9159882460        1.1641092980
 Cl        -4.7781612767        1.3087180261       -0.1338563952
       6
 i =   170182, time =   170182.000, E =       -54.0418211344
  H         0.3084050731        4.2898344466        1.1869943542
  H        -0.2016181268        6.0963437716       -0.4769082003
  I         0.1462717940        3.1094713697        2.4450268945
 Cl         0.5524637940        4.9944215186       -0.5370980365
  I        -2.7376632318        1.9165541277        1.1650271940
 Cl        -4.7790688672        1.3106029940       -0.1350888649
       6
 i =   170183, time =   170183.000, E =       -54.0415748949
  H         0.2924529645        4.2893802622        1.1791618059
  H        -0.2217663268        6.0851477136       -0.4613513021
  I         0.1436226331        3.1083226310        2.4441684219
 Cl         0.5523624388        4.9948859235       -0.5362939034
  I        -2.7344792061        1.9171280749        1.1659190966
 Cl        -4.7798875552        1.3124515608       -0.1362294475
       6
 i =   170184, time =   170184.000, E =       -54.0415986008
  H         0.2749202590        4.2859638864        1.1713010150
  H        -0.2401935413        6.0688886323       -0.4453402986
  I         0.1407876575        3.1070922232        2.4432653175
 Cl         0.5521825343        4.9955670125       -0.5355023697
  I        -2.7310978993        1.9177547897        1.1668538860
 Cl        -4.7806745599        1.3144107558       -0.1373631394
       6
 i =   170185, time =   170185.000, E =       -54.0418675490
  H         0.2558954060        4.2792278855        1.1635749001
  H        -0.2569788062        6.0476860506       -0.4289524589
  I         0.1377534243        3.1057756020        2.4423130136
 Cl         0.5519214324        4.9964675038       -0.5347201381
  I        -2.7275072203        1.9184370808        1.1678338146
 Cl        -4.7814227610        1.3164904250       -0.1384870805
       6
 i =   170186, time =   170186.000, E =       -54.0422426849
  H         0.2368578452        4.2695556035        1.1565056615
  H        -0.2717691751        6.0241183736       -0.4133224255
  I         0.1347189906        3.1044592143        2.4413745014
 Cl         0.5516150505        4.9974975890       -0.5339990646
  I        -2.7239460605        1.9191295630        1.1687930902
 Cl        -4.7820751886        1.3185550866       -0.1395221956
       6
 i =   170187, time =   170187.000, E =       -54.0426002533
  H         0.2178726680        4.2570445041        1.1498586217
  H        -0.2860305849        5.9997321925       -0.3982319084
  I         0.1316523104        3.1031280241        2.4404412277
 Cl         0.5512942239        4.9986180338       -0.5333330937
  I        -2.7203794270        1.9198385973        1.1697409624
 Cl        -4.7826336865        1.3206277770       -0.1404767053
       6
 i =   170188, time =   170188.000, E =       -54.0428723006
  H         0.1996811886        4.2423736255        1.1435032734
  H        -0.3008949697        5.9769872121       -0.3839248509
  I         0.1286299700        3.1018131296        2.4395387810
 Cl         0.5510059747        4.9997478090       -0.5327419476
  I        -2.7168987037        1.9205454611        1.1706531157
 Cl        -4.7830803024        1.3226579726       -0.1413249650
       6
 i =   170189, time =   170189.000, E =       -54.0430649389
  H         0.1827657591        4.2262597295        1.1371270079
  H        -0.3173446479        5.9575569931       -0.3704483238
  I         0.1256939960        3.1005300212        2.4386823777
 Cl         0.5507849478        5.0008305265       -0.5322355209
  I        -2.7135536795        1.9212391858        1.1715167849
 Cl        -4.7834073990        1.3246188898       -0.1420555773
       6
 i =   170190, time =   170190.000, E =       -54.0431932274
  H         0.1667991961        4.2087304736        1.1300954650
  H        -0.3363818117        5.9413395452       -0.3573209960
  I         0.1227531511        3.0992357042        2.4378484996
 Cl         0.5506356037        5.0018841112       -0.5317977889
  I        -2.7102418031        1.9219402703        1.1723586354
 Cl        -4.7836233375        1.3265728845       -0.1426912458
       6
 i =   170191, time =   170191.000, E =       -54.0432233446
  H         0.1518203409        4.1901148546        1.1218837002
  H        -0.3578541117        5.9277691809       -0.3445108619
  I         0.1197783607        3.0979140307        2.4370325342
 Cl         0.5505445675        5.0029301422       -0.5314213073
  I        -2.7069322902        1.9226547507        1.1731864083
 Cl        -4.7837264849        1.3285405293       -0.1432365226
       6
 i =   170192, time =   170192.000, E =       -54.0431150745
  H         0.1380521222        4.1709216700        1.1121015202
  H        -0.3805948360        5.9156978848       -0.3323121826
  I         0.1167768285        3.0965651295        2.4362398450
 Cl         0.5504781186        5.0039992184       -0.5310997856
  I        -2.7036350870        1.9233800312        1.1739974547
 Cl        -4.7837125603        1.3305184004       -0.1436881307
       6
 i =   170193, time =   170193.000, E =       -54.0428625545
  H         0.1245003875        4.1498282299        1.0994786970
  H        -0.4050789922        5.9025168704       -0.3200512420
  I         0.1134800502        3.0950651455        2.4354036027
 Cl         0.5503831301        5.0052321769       -0.5307964397
  I        -2.7000588532        1.9241803242        1.1748626903
 Cl        -4.7835713795        1.3326845098       -0.1440804372
       6
 i =   170194, time =   170194.000, E =       -54.0425675833
  H         0.1122709044        4.1284702206        1.0845534179
  H        -0.4280109212        5.8874957129       -0.3089870486
  I         0.1100979243        3.0935071143        2.4345802995
 Cl         0.5502135208        5.0065969546       -0.5305215142
  I        -2.6964351462        1.9250039985        1.1757252382
 Cl        -4.7833022294        1.3349020885       -0.1443818952
       6
 i =   170195, time =   170195.000, E =       -54.0423714993
  H         0.1018219632        4.1074839648        1.0677296319
  H        -0.4474591458        5.8698885618       -0.2997469501
  I         0.1067136365        3.0919289641        2.4337903768
 Cl         0.5499327871        5.0080909938       -0.5302729482
  I        -2.6928549224        1.9258299980        1.1765631949
 Cl        -4.7829075313        1.3371180243       -0.1445830327
       6
 i =   170196, time =   170196.000, E =       -54.0423511547
  H         0.0934211163        4.0871489044        1.0495353991
  H        -0.4625345499        5.8496053501       -0.2926306049
  I         0.1033788575        3.0903559054        2.4330438489
 Cl         0.5495267439        5.0096999531       -0.5300495589
  I        -2.6893735562        1.9266449727        1.1773637006
 Cl        -4.7823921742        1.3392997518       -0.1446810829
       6
 i =   170197, time =   170197.000, E =       -54.0424710504
  H         0.0868996495        4.0666453709        1.0297687924
  H        -0.4739839865        5.8263308175       -0.2873687552
  I         0.0999809694        3.0887366642        2.4323123783
 Cl         0.5489865064        5.0114663551       -0.5298446190
  I        -2.6858743642        1.9274758489        1.1781536301
 Cl        -4.7817371840        1.3415219037       -0.1446792004
       6
 i =   170198, time =   170198.000, E =       -54.0426173628
  H         0.0822245366        4.0451207964        1.0083022161
  H        -0.4831511986        5.8002669019       -0.2836159210
  I         0.0964109187        3.0870212549        2.4315691089
 Cl         0.5483200968        5.0134197411       -0.5296590340
  I        -2.6822473280        1.9283488043        1.1789574548
 Cl        -4.7809162499        1.3438565079       -0.1445741928
       6
 i =   170199, time =   170199.000, E =       -54.0426662459
  H         0.0797582908        4.0232973396        0.9867225324
  H        -0.4913486567        5.7740140421       -0.2811671364
  I         0.0928288422        3.0852890922        2.4308428948
 Cl         0.5476042937        5.0154303969       -0.5295134839
  I        -2.6786569024        1.9292242752        1.1797385104
 Cl        -4.7799623169        1.3461994115       -0.1443687051
       6
 i =   170200, time =   170200.000, E =       -54.0425979979
  H         0.0796202801        4.0014994737        0.9662516912
  H        -0.5004028963        5.7497761657       -0.2795876827
  I         0.0893263462        3.0835872341        2.4301468671
 Cl         0.5469141141        5.0174003685       -0.5294247248
  I        -2.6751947782        1.9300795621        1.1804771519
 Cl        -4.7789007655        1.3484911796       -0.1440696153
       6
 i =   170201, time =   170201.000, E =       -54.0424908125
  H         0.0817895709        3.9798804964        0.9477910504
  H        -0.5118054775        5.7290026823       -0.2784692149
  I         0.0859539408        3.0819426588        2.4294857562
 Cl         0.5463053444        5.0192663114       -0.5294035630
  I        -2.6719095738        1.9309021148        1.1811635626
 Cl        -4.7777506658        1.3506992583       -0.1436848983
       6
 i =   170202, time =   170202.000, E =       -54.0424093728
  H         0.0863770131        3.9571387801        0.9307878670
  H        -0.5269587937        5.7109168486       -0.2775354009
  I         0.0825194167        3.0802631928        2.4288176407
 Cl         0.5457645354        5.0211195388       -0.5294533977
  I        -2.6686134891        1.9317386696        1.1818372065
 Cl        -4.7764477923        1.3529500651       -0.1431943660
       6
 i =   170203, time =   170203.000, E =       -54.0423468592
  H         0.0937781617        3.9317430684        0.9146342569
  H        -0.5466371917        5.6940861049       -0.2767932495
  I         0.0787969604        3.0784389998        2.4280954324
 Cl         0.5452489680        5.0230873668       -0.5295788152
  I        -2.6650921795        1.9326440466        1.1825410686
 Cl        -4.7748995262        1.3553924904       -0.1425612840
       6
 i =   170204, time =   170204.000, E =       -54.0422647783
  H         0.1035643595        3.9053731455        0.9007560380
  H        -0.5682376947        5.6786503025       -0.2765999121
  I         0.0750251973        3.0765868543        2.4273631160
 Cl         0.5447530947        5.0250683307       -0.5297656473
  I        -2.6615734061        1.9335600940        1.1832287803
 Cl        -4.7731985234        1.3578710213       -0.1418220442
       6
 i =   170205, time =   170205.000, E =       -54.0421737236
  H         0.1153052783        3.8791001661        0.8897506378
  H        -0.5890130814        5.6638222070       -0.2773631354
  I         0.0713308350        3.0747682395        2.4266441153
 Cl         0.5442368145        5.0270293189       -0.5299950018
  I        -2.6581749008        1.9344560571        1.1838771933
 Cl        -4.7714016224        1.3603033720       -0.1410019231
       6
 i =   170206, time =   170206.000, E =       -54.0421490874
  H         0.1291717629        3.8525155655        0.8812681749
  H        -0.6075712259        5.6480439246       -0.2794620490
  I         0.0676153615        3.0729332233        2.4259194175
 Cl         0.5436324476        5.0290518246       -0.5302610223
  I        -2.6548052222        1.9353559282        1.1845036828
 Cl        -4.7694612884        1.3627552980       -0.1400799425
       6
 i =   170207, time =   170207.000, E =       -54.0422832248
  H         0.1447198563        3.8265161503        0.8752455220
  H        -0.6221417360        5.6308673730       -0.2830737895
  I         0.0639545456        3.0711171528        2.4252053115
 Cl         0.5429148354        5.0311124475       -0.5305501921
  I        -2.6515322668        1.9362415544        1.1850955585
 Cl        -4.7674173902        1.3651775251       -0.1390756688
       6
 i =   170208, time =   170208.000, E =       -54.0426087222
  H         0.1622149956        3.8007751596        0.8711082638
  H        -0.6326009797        5.6115359452       -0.2883283545
  I         0.0602454486        3.0692663897        2.4244844852
 Cl         0.5420509705        5.0332724874       -0.5308679038
  I        -2.6482631854        1.9371381432        1.1856695899
 Cl        -4.7652128678        1.3676386157       -0.1379616323
       6
 i =   170209, time =   170209.000, E =       -54.0430623199
  H         0.1816661396        3.7755438929        0.8683054463
  H        -0.6394184076        5.5900758709       -0.2951227408
  I         0.0564556437        3.0673616806        2.4237544856
 Cl         0.5410462070        5.0355408727       -0.5312202025
  I        -2.6449692737        1.9380539313        1.1862305929
 Cl        -4.7628270672        1.3701603322       -0.1367274997
       6
 i =   170210, time =   170210.000, E =       -54.0435014497
  H         0.2020031840        3.7524630708        0.8663537246
  H        -0.6436330555        5.5681363465       -0.3027907027
  I         0.0527622635        3.0654892628        2.4230536641
 Cl         0.5399885809        5.0377888286       -0.5315980533
  I        -2.6418033710        1.9389466019        1.1867527217
 Cl        -4.7603732780        1.3726246082       -0.1354325435
       6
 i =   170211, time =   170211.000, E =       -54.0438432039
  H         0.2240297253        3.7308346659        0.8645804909
  H        -0.6474146164        5.5455611631       -0.3112444838
  I         0.0489915505        3.0635586342        2.4223530365
 Cl         0.5388869033        5.0400933874       -0.5320294069
  I        -2.6386152981        1.9398587023        1.1872609556
 Cl        -4.7577384109        1.3751469566       -0.1340177339
       6
 i =   170212, time =   170212.000, E =       -54.0440594477
  H         0.2487401952        3.7099686009        0.8624355023
  H        -0.6531393744        5.5220836966       -0.3204719135
  I         0.0449532761        3.0614695663        2.4216211716
 Cl         0.5377500033        5.0425423634       -0.5325489752
  I        -2.6352449620        1.9408369040        1.1877801209
 Cl        -4.7547859380        1.3778544398       -0.1324092341
       6
 i =   170213, time =   170213.000, E =       -54.0441673826
  H         0.2751275596        3.6909184133        0.8597039326
  H        -0.6625297319        5.4991591371       -0.3297925391
  I         0.0407868049        3.0592918078        2.4208860317
 Cl         0.5366740609        5.0450289501       -0.5331497956
  I        -2.6318093311        1.9418482239        1.1882913268
 Cl        -4.7516138303        1.3806534934       -0.1306597654
       6
 i =   170214, time =   170214.000, E =       -54.0441951831
  H         0.3010417215        3.6751477997        0.8565956824
  H        -0.6756347154        5.4785767178       -0.3383714461
  I         0.0367962608        3.0571838963        2.4202009571
 Cl         0.5357608564        5.0473654709       -0.5337903157
  I        -2.6285573997        1.9428195719        1.1887574145
 Cl        -4.7484560625        1.3833396937       -0.1288986772
       6
 i =   170215, time =   170215.000, E =       -54.0441186387
  H         0.3280966235        3.6614436323        0.8531811883
  H        -0.6927536262        5.4584527295       -0.3469100484
  I         0.0326933921        3.0549938434        2.4195140491
 Cl         0.5349281588        5.0497303687       -0.5345128509
  I        -2.6252521893        1.9438218745        1.1892120728
 Cl        -4.7450865934        1.3861074027       -0.1270000648
       6
 i =   170216, time =   170216.000, E =       -54.0438985758
  H         0.3549478428        3.6501906721        0.8500973763
  H        -0.7114860351        5.4388045230       -0.3553327643
  I         0.0286334623        3.0528047935        2.4188475307
 Cl         0.5341598239        5.0520539921       -0.5352827402
  I        -2.6220170471        1.9448181159        1.1896375877
 Cl        -4.7416324011        1.3888527130       -0.1250351730
       6
 i =   170217, time =   170217.000, E =       -54.0435810210
  H         0.3809231812        3.6412678136        0.8480092025
  H        -0.7292590091        5.4190067587       -0.3638455216
  I         0.0246634078        3.0506430021        2.4182040769
 Cl         0.5333997833        5.0543328370       -0.5360812479
  I        -2.6188865360        1.9457976531        1.1900290228
 Cl        -4.7381353586        1.3915448942       -0.1230278217
       6
 i =   170218, time =   170218.000, E =       -54.0432744184
  H         0.4067858826        3.6340562645        0.8474827681
  H        -0.7446342703        5.3974866201       -0.3730754238
  I         0.0206107319        3.0484150575        2.4175507655
 Cl         0.5325538947        5.0566855550       -0.5369356118
  I        -2.6157221304        1.9468040670        1.1904029480
 Cl        -4.7344433806        1.3943021884       -0.1208903501
       6
 i =   170219, time =   170219.000, E =       -54.0431384238
  H         0.4301998423        3.6288601098        0.8491128720
  H        -0.7549402817        5.3754899606       -0.3824549216
  I         0.0167850295        3.0462917936        2.4169331247
 Cl         0.5316453098        5.0589440943       -0.5377757587
  I        -2.6127625113        1.9477614025        1.1907307561
 Cl        -4.7308403580        1.3969150704       -0.1187869923
       6
 i =   170220, time =   170220.000, E =       -54.0432302493
  H         0.4518432807        3.6252525739        0.8532577436
  H        -0.7602645445        5.3520773187       -0.3923616437
  I         0.0130257344        3.0441848141        2.4163224666
 Cl         0.5306267004        5.0612042475       -0.5386349115
  I        -2.6098799045        1.9487105994        1.1910268704
 Cl        -4.7271803330        1.3994935981       -0.1166328018
       6
 i =   170221, time =   170221.000, E =       -54.0435154855
  H         0.4729041420        3.6229288459        0.8603935351
  H        -0.7614998567        5.3257916571       -0.4033759824
  I         0.0090728152        3.0419476193        2.4156754326
 Cl         0.5294436026        5.0636171921       -0.5395754682
  I        -2.6068729546        1.9497185049        1.1913111123
 Cl        -4.7232097283        1.4022165779       -0.1142778610
       6
 i =   170222, time =   170222.000, E =       -54.0438600713
  H         0.4918336369        3.6220477041        0.8700173027
  H        -0.7601369299        5.2986374649       -0.4146070624
  I         0.0051737481        3.0397191904        2.4150333439
 Cl         0.5282156258        5.0660207107       -0.5405436831
  I        -2.6039281064        1.9507231888        1.1915650987
 Cl        -4.7191778257        1.4049133881       -0.1118693440
       6
 i =   170223, time =   170223.000, E =       -54.0441696251
  H         0.5093101462        3.6226449880        0.8821970295
  H        -0.7584375811        5.2699251718       -0.4262878205
  I         0.0011620982        3.0374032922        2.4143716511
 Cl         0.5269569475        5.0685035084       -0.5415860320
  I        -2.6009178407        1.9517685444        1.1917994636
 Cl        -4.7149158056        1.4076981961       -0.1093058980
       6
 i =   170224, time =   170224.000, E =       -54.0444072302
  H         0.5250656954        3.6248521076        0.8963084194
  H        -0.7588531050        5.2403331233       -0.4380851568
  I        -0.0029210732        3.0350219694        2.4137016391
 Cl         0.5257501991        5.0710289135       -0.5426966650
  I        -2.5978718302        1.9528449234        1.1920110832
 Cl        -4.7104695116        1.4105413369       -0.1066142650
       6
 i =   170225, time =   170225.000, E =       -54.0445866816
  H         0.5381037908        3.6286293109        0.9107028894
  H        -0.7630476000        5.2120348516       -0.4490946301
  I        -0.0068008984        3.0327347033        2.4130739875
 Cl         0.5247244263        5.0734214352       -0.5438008879
  I        -2.5949936878        1.9538802957        1.1921859059
 Cl        -4.7061451521        1.4132496512       -0.1039795604
       6
 i =   170226, time =   170226.000, E =       -54.0447134635
  H         0.5489140079        3.6341420063        0.9249984722
  H        -0.7713663929        5.1843143571       -0.4596132422
  I        -0.0105722634        3.0304853710        2.4124790071
 Cl         0.5238604881        5.0757408930       -0.5449211831
  I        -2.5922115942        1.9548999455        1.1923288754
 Cl        -4.7018461315        1.4158874525       -0.1013430129
       6
 i =   170227, time =   170227.000, E =       -54.0447371933
  H         0.5574249152        3.6413059294        0.9381878994
  H        -0.7823987822        5.1577175553       -0.4695091142
  I        -0.0141410342        3.0283300658        2.4119367358
 Cl         0.5231444948        5.0779348040       -0.5460226346
  I        -2.5895938048        1.9558782700        1.1924369849
 Cl        -4.6976883780        1.4183872155       -0.0987757869
       6
 i =   170228, time =   170228.000, E =       -54.0446348013
  H         0.5639298851        3.6501916550        0.9499093893
  H        -0.7940695056        5.1318015341       -0.4790529053
  I        -0.0175439989        3.0262469729        2.4114454770
 Cl         0.5225053297        5.0800315569       -0.5471086492
  I        -2.5871120464        1.9568250367        1.1925121065
 Cl        -4.6936377697        1.4207733516       -0.0962570327
       6
 i =   170229, time =   170229.000, E =       -54.0444506204
  H         0.5687964493        3.6611153266        0.9602543961
  H        -0.8043865051        5.1055175353       -0.4887446411
  I        -0.0209055113        3.0241599708        2.4109903100
 Cl         0.5218495222        5.0821114903       -0.5482126996
  I        -2.5846745036        1.9577748888        1.1925571053
 Cl        -4.6895523252        1.4231321526       -0.0936983049
       6
 i =   170230, time =   170230.000, E =       -54.0442896964
  H         0.5721014340        3.6741467021        0.9691233373
  H        -0.8113106651        5.0786645193       -0.4987702149
  I        -0.0242526992        3.0220517681        2.4105697659
 Cl         0.5211100889        5.0841923533       -0.5493398197
  I        -2.5822603522        1.9587360031        1.1925718437
 Cl        -4.6854026432        1.4254821318       -0.0910806416
       6
 i =   170231, time =   170231.000, E =       -54.0442590146
  H         0.5737559281        3.6889146597        0.9763566907
  H        -0.8133478526        5.0518850734       -0.5089723412
  I        -0.0275173916        3.0199652823        2.4101927971
 Cl         0.5202618955        5.0862304439       -0.5504649580
  I        -2.5799171153        1.9596893933        1.1925557258
 Cl        -4.6812766780        1.4277752639       -0.0884590896
       6
 i =   170232, time =   170232.000, E =       -54.0443819742
  H         0.5737084671        3.7054305885        0.9822090220
  H        -0.8102553475        5.0249631959       -0.5194716390
  I        -0.0307397066        3.0178752204        2.4098536911
 Cl         0.5192848965        5.0882482060       -0.5516009370
  I        -2.5776137751        1.9606474912        1.1925086285
 Cl        -4.6771276254        1.4300396238       -0.0858036210
       6
 i =   170233, time =   170233.000, E =       -54.0445870927
  H         0.5718431373        3.7232558629        0.9868953012
  H        -0.8028837198        4.9983333216       -0.5301052187
  I        -0.0338788784        3.0158086382        2.4095545250
 Cl         0.5182122628        5.0902183984       -0.5527331100
  I        -2.5753768437        1.9615990454        1.1924313976
 Cl        -4.6730118351        1.4322465516       -0.0831500674
       6
 i =   170234, time =   170234.000, E =       -54.0447646407
  H         0.5680729357        3.7418508211        0.9907282521
  H        -0.7930990617        4.9723934884       -0.5406914012
  I        -0.0368905068        3.0137960105        2.4092961802
 Cl         0.5171066979        5.0921138771       -0.5538447988
  I        -2.5732350074        1.9625313021        1.1923259568
 Cl        -4.6689924356        1.4343648175       -0.0805392064
       6
 i =   170235, time =   170235.000, E =       -54.0448478295
  H         0.5622514529        3.7611265949        0.9941596570
  H        -0.7830442264        4.9467410883       -0.5513466611
  I        -0.0398084816        3.0118161696        2.4090720690
 Cl         0.5160170132        5.0939598809       -0.5549471462
  I        -2.5711611981        1.9634554089        1.1921921164
 Cl        -4.6650292818        1.4364182170       -0.0779451276
       6
 i =   170236, time =   170236.000, E =       -54.0448406947
  H         0.5542174076        3.7809931016        0.9976250985
  H        -0.7747997981        4.9209101597       -0.5622227423
  I        -0.0426622613        3.0098503929        2.4088766102
 Cl         0.5149912094        5.0957815316       -0.5560492557
  I        -2.5691316850        1.9643815199        1.1920291939
 Cl        -4.6610866647        1.4384274229       -0.0753444516
       6
 i =   170237, time =   170237.000, E =       -54.0447913704
  H         0.5436438345        3.8017151071        1.0016002225
  H        -0.7697071017        4.8939911450       -0.5737072106
  I        -0.0455293928        3.0078460097        2.4087019367
 Cl         0.5140425083        5.0976354273       -0.5571787239
  I        -2.5670887338        1.9653359857        1.1918327449
 Cl        -4.6570604267        1.4404469693       -0.0726680954
       6
 i =   170238, time =   170238.000, E =       -54.0447329493
  H         0.5307377829        3.8224826944        1.0063373154
  H        -0.7683292770        4.8665636447       -0.5856186213
  I        -0.0483372786        3.0058544882        2.4085504235
 Cl         0.5132034683        5.0994789139       -0.5583045668
  I        -2.5650818082        1.9662957630        1.1916075209
 Cl        -4.6530552386        1.4424256781       -0.0699852281
       6
 i =   170239, time =   170239.000, E =       -54.0446495777
  H         0.5158155164        3.8426315700        1.0120056652
  H        -0.7697917938        4.8392701573       -0.5977994057
  I        -0.0510313736        3.0039157891        2.4084233085
 Cl         0.5124609108        5.1012739501       -0.5594028019
  I        -2.5631481630        1.9672426437        1.1913582983
 Cl        -4.6491530895        1.4443249488       -0.0673508267
       6
 i =   170240, time =   170240.000, E =       -54.0445135879
  H         0.4987052018        3.8623763188        1.0189005658
  H        -0.7722856751        4.8118947863       -0.6105269771
  I        -0.0536676905        3.0019907103        2.4083171407
 Cl         0.5117430809        5.1030492284       -0.5604957420
  I        -2.5612463709        1.9681965649        1.1910801611
 Cl        -4.6452769662        1.4461840205       -0.0647129650
       6
 i =   170241, time =   170241.000, E =       -54.0443364864