       6
 i =   137032, time =   137032.000, E =       -53.9854424281
  H        -1.4285562517        0.7482206363       -0.4420288327
  H        -0.8972789874        0.0488828862       -0.5258488911
  I        -2.5850918153        3.4212048806       -2.4898287431
 Cl        -1.8417058224        2.7291444944       -0.2683256137
  I        -1.1696663485       -0.0332742846        1.6880356112
 Cl        -1.4696661665       -0.2322625273        4.1853194952
       6
 i =   137033, time =   137033.000, E =       -53.9796618615
  H        -1.4688424407        0.7738971460       -0.4374526998
  H        -0.8643644081        0.0608072871       -0.5232843996
  I        -2.5843724810        3.4216090886       -2.4919180910
 Cl        -1.8455637274        2.7299501793       -0.2665200534
  I        -1.1701893317       -0.0337841456        1.6893448466
 Cl        -1.4662816669       -0.2337228045        4.1860951664
       6
 i =   137034, time =   137034.000, E =       -53.9744787163
  H        -1.5023694363        0.7954652970       -0.4315293747
  H        -0.8370190493        0.0787106911       -0.5177673764
  I        -2.5836197244        3.4220322859       -2.4940778867
 Cl        -1.8496121354        2.7307188834       -0.2647010130
  I        -1.1707553787       -0.0343042862        1.6907551669
 Cl        -1.4627051657       -0.2352289350        4.1866254842
       6
 i =   137035, time =   137035.000, E =       -53.9714005786
  H        -1.5255866464        0.8109823383       -0.4242821575
  H        -0.8184282602        0.1025640939       -0.5085672617
  I        -2.5828701162        3.4224549193       -2.4962052522
 Cl        -1.8536599999        2.7314056610       -0.2629544683
  I        -1.1713357492       -0.0348073811        1.6921862618
 Cl        -1.4591109660       -0.2367097828        4.1868957916
       6
 i =   137036, time =   137036.000, E =       -53.9709288526
  H        -1.5372867506        0.8201593605       -0.4157835752
  H        -0.8096579816        0.1313822726       -0.4955577598
  I        -2.5821437990        3.4228660681       -2.4982445059
 Cl        -1.8576027383        2.7319938277       -0.2613242397
  I        -1.1719131394       -0.0352783718        1.6935915498
 Cl        -1.4555981305       -0.2381281086        4.1869157601
       6
 i =   137037, time =   137037.000, E =       -53.9729734985
  H        -1.5382609201        0.8240380986       -0.4052942031
  H        -0.8100738402        0.1670273957       -0.4776031570
  I        -2.5813767446        3.4233017708       -2.5003743194
 Cl        -1.8617916347        2.7325435455       -0.2596679595
  I        -1.1725375184       -0.0357568950        1.6950927776
 Cl        -1.4518594617       -0.2396106424        4.1866925322
       6
 i =   137038, time =   137038.000, E =       -53.9769219737
  H        -1.5287625520        0.8228245282       -0.3934675841
  H        -0.8191880653        0.2067573349       -0.4559846021
  I        -2.5806048056        3.4237407534       -2.5024915648
 Cl        -1.8660339272        2.7330458287       -0.2580685502
  I        -1.1731793541       -0.0362187282        1.6966233660
 Cl        -1.4480727463       -0.2410890221        4.1862335754
       6
 i =   137039, time =   137039.000, E =       -53.9815459948
  H        -1.5102309203        0.8174611647       -0.3805254893
  H        -0.8353863546        0.2492318546       -0.4314672283
  I        -2.5798195931        3.4241862162       -2.5046142488
 Cl        -1.8703773923        2.7335334137       -0.2565160774
  I        -1.1738452693       -0.0366681880        1.6982084960
 Cl        -1.4442013570       -0.2425798386        4.1855315663
       6
 i =   137040, time =   137040.000, E =       -53.9845847333
  H        -1.4872283804        0.8106719438       -0.3674147431
  H        -0.8540695769        0.2893178866       -0.4066378583
  I        -2.5790562241        3.4246163426       -2.5066420044
 Cl        -1.8746276744        2.7340139202       -0.2550880645
  I        -1.1745051953       -0.0370855910        1.6997893126
 Cl        -1.4404236659       -0.2440167450        4.1846164201
       6
 i =   137041, time =   137041.000, E =       -53.9847570554
  H        -1.4670012211        0.8073952311       -0.3546987520
  H        -0.8680666497        0.3209893092       -0.3837174564
  I        -2.5783318650        3.4250198141       -2.5085255546
 Cl        -1.8786867390        2.7344990282       -0.2538214695
  I        -1.1751436771       -0.0374632098        1.7013416743
 Cl        -1.4368298852       -0.2453680759        4.1835143411
       6
 i =   137042, time =   137042.000, E =       -53.9839474237
  H        -1.4573636562        0.8132536505       -0.3426810030
  H        -0.8696892007        0.3384501047       -0.3640633648
  I        -2.5776509933        3.4253931813       -2.5102521989
 Cl        -1.8825262968        2.7349974309       -0.2527244700
  I        -1.1757557638       -0.0378006275        1.7028627640
 Cl        -1.4334466253       -0.2466269194        4.1822455933
       6
 i =   137043, time =   137043.000, E =       -53.9839003500
  H        -1.4607811368        0.8308220892       -0.3308809713
  H        -0.8559937040        0.3407085763       -0.3467266070
  I        -2.5769676496        3.4257613840       -2.5119388922
 Cl        -1.8864045459        2.7355477035       -0.2517214504
  I        -1.1763816826       -0.0381211752        1.7044563557
 Cl        -1.4300487086       -0.2478808314        4.1807408660
       6
 i =   137044, time =   137044.000, E =       -53.9827675246
  H        -1.4729300136        0.8567579796       -0.3195543091
  H        -0.8312531289        0.3311156280       -0.3312728542
  I        -2.5762785597        3.4261265940       -2.5135953390
 Cl        -1.8903420144        2.7361519073       -0.2508042767
  I        -1.1770232552       -0.0384247379        1.7061250330
 Cl        -1.4266220245       -0.2491401179        4.1790122923
       6
 i =   137045, time =   137045.000, E =       -53.9795364515
  H        -1.4861366267        0.8847703381       -0.3090309957
  H        -0.8035794327        0.3156115277       -0.3173659021
  I        -2.5756029087        3.4264798968       -2.5151800864
 Cl        -1.8942312029        2.7367820001       -0.2499890896
  I        -1.1776608252       -0.0386999351        1.7078100054
 Cl        -1.4232632734       -0.2503758700        4.1771376903
       6
 i =   137046, time =   137046.000, E =       -53.9752552607
  H        -1.4956973010        0.9121956475       -0.2986544571
  H        -0.7773903479        0.2976836001       -0.3036739477
  I        -2.5749167804        3.4268355525       -2.5167554818
 Cl        -1.8982102974        2.7374362084       -0.2492341675
  I        -1.1783149112       -0.0389524995        1.7095558638
 Cl        -1.4198540644       -0.2516390235        4.1750818331
       6
 i =   137047, time =   137047.000, E =       -53.9710730976
  H        -1.4992671432        0.9383473344       -0.2877302586
  H        -0.7548644864        0.2788310258       -0.2890610728
  I        -2.5742012326        3.4272052740       -2.5183709955
 Cl        -1.9023883013        2.7380990596       -0.2485060684
  I        -1.1790015454       -0.0391841436        1.7113967500
 Cl        -1.4163005268       -0.2529724315        4.1728138556
       6
 i =   137048, time =   137048.000, E =       -53.9678400535
  H        -1.4955273591        0.9620866239       -0.2762043882
  H        -0.7381508374        0.2606146493       -0.2733361048
  I        -2.5734753831        3.4275810123       -2.5199892308
 Cl        -1.9066516668        2.7387196043       -0.2478119129
  I        -1.1797000922       -0.0393838306        1.7132711877
 Cl        -1.4126983997       -0.2543486255        4.1704205434
       6
 i =   137049, time =   137049.000, E =       -53.9659052001
  H        -1.4839779737        0.9828597949       -0.2640402290
  H        -0.7283272497        0.2440669707       -0.2563811893
  I        -2.5727476762        3.4279599033       -2.5215964959
 Cl        -1.9109478836        2.7392656976       -0.2471485716
  I        -1.1803999658       -0.0395460290        1.7151480751
 Cl        -1.4090912897       -0.2557589150        4.1679572240
       6
 i =   137050, time =   137050.000, E =       -53.9653323465
  H        -1.4648017460        1.0000210379       -0.2514690684
  H        -0.7259273583        0.2301868737       -0.2385366416
  I        -2.5720312191        3.4283361493       -2.5231677484
 Cl        -1.9151953608        2.7397117428       -0.2465189452
  I        -1.1810863449       -0.0396661974        1.7169881348
 Cl        -1.4055466416       -0.2571839101        4.1654943935
       6
 i =   137051, time =   137051.000, E =       -53.9659308190
  H        -1.4369846739        1.0146077275       -0.2377602768
  H        -0.7307585170        0.2185190958       -0.2189077383
  I        -2.5712759966        3.4287366358       -2.5248147904
 Cl        -1.9196850492        2.7400759577       -0.2458730859
  I        -1.1818054017       -0.0397508406        1.7189180165
 Cl        -1.4018203042       -0.2587291755        4.1628821365
       6
 i =   137052, time =   137052.000, E =       -53.9673903328
  H        -1.4021653544        1.0262963299       -0.2236209355
  H        -0.7421670603        0.2096414673       -0.1987866241
  I        -2.5705050745        3.4291493381       -2.5264878316
 Cl        -1.9242722507        2.7403358212       -0.2452272592
  I        -1.1825339974       -0.0397953435        1.7208806476
 Cl        -1.3980302169       -0.2603537437        4.1602193724
       6
 i =   137053, time =   137053.000, E =       -53.9693045073
  H        -1.3623109815        1.0354212055       -0.2097309300
  H        -0.7588150344        0.2035088643       -0.1795194618
  I        -2.5697318442        3.4295667443       -2.5281571134
 Cl        -1.9288679084        2.7404814115       -0.2445913406
  I        -1.1832590458       -0.0397984496        1.7228475888
 Cl        -1.3942466082       -0.2620339384        4.1575687991
       6
 i =   137054, time =   137054.000, E =       -53.9712090589
  H        -1.3213514145        1.0423526660       -0.1973728492
  H        -0.7782295570        0.1998766421       -0.1633061100
  I        -2.5689990935        3.4299649509       -2.5297287625
 Cl        -1.9332081517        2.7405068417       -0.2440011020
  I        -1.1839406775       -0.0397615047        1.7247182702
 Cl        -1.3906828633       -0.2636788274        4.1550897540
       6
 i =   137055, time =   137055.000, E =       -53.9729577827
  H        -1.2785006617        1.0484046839       -0.1863555057
  H        -0.8000361162        0.1978172333       -0.1503592970
  I        -2.5682636504        3.4303663835       -2.5312931009
 Cl        -1.9375402015        2.7404201995       -0.2434244574
  I        -1.1846195069       -0.0396843335        1.7266122459
 Cl        -1.3871330694       -0.2653864752        4.1526459964
       6
 i =   137056, time =   137056.000, E =       -53.9743327598
  H        -1.2371369559        1.0540914647       -0.1777036664
  H        -0.8218782085        0.1966996656       -0.1423946680
  I        -2.5675601207        3.4307509962       -2.5327736895
 Cl        -1.9416532676        2.7402354454       -0.2428929393
  I        -1.1852639165       -0.0395725528        1.7284493531
 Cl        -1.3837685367       -0.2670771967        4.1503606468
       6
 i =   137057, time =   137057.000, E =       -53.9753790159
  H        -1.1972134224        1.0601925996       -0.1715519036
  H        -0.8432990819        0.1957983908       -0.1400000038
  I        -2.5668689992        3.4311282814       -2.5342088283
 Cl        -1.9456567768        2.7399613286       -0.2423968531
  I        -1.1858917774       -0.0394254837        1.7302869480
 Cl        -1.3804997510       -0.2687968599        4.1481761916
       6
 i =   137058, time =   137058.000, E =       -53.9761269375
  H        -1.1611006927        1.0668504339       -0.1683441967
  H        -0.8627169230        0.1945734897       -0.1436473383
  I        -2.5662183047        3.4314819096       -2.5355380295
 Cl        -1.9493858366        2.7396239892       -0.2419610201
  I        -1.1864771236       -0.0392514562        1.7320529810
 Cl        -1.3774623303       -0.2704733565        4.1461850875
       6
 i =   137059, time =   137059.000, E =       -53.9766757195
  H        -1.1284615297        1.0742335968       -0.1679875065
  H        -0.8802043265        0.1926939703       -0.1532424649
  I        -2.5655938200        3.4318188130       -2.5367888864
 Cl        -1.9529214076        2.7392314069       -0.2415795061
  I        -1.1870317802       -0.0390491014        1.7337836061
 Cl        -1.3745917200       -0.2721392309        4.1443454090
       6
 i =   137060, time =   137060.000, E =       -53.9770957758
  H        -1.0971360017        1.0825486726       -0.1704007158
  H        -0.8969385387        0.1900328777       -0.1691601479
  I        -2.5649485584        3.4321636476       -2.5380534460
 Cl        -1.9565279745        2.7387649404       -0.2412281112
  I        -1.1875957158       -0.0388035504        1.7356040001
 Cl        -1.3716751325       -0.2739176204        4.1425225903
       6
 i =   137061, time =   137061.000, E =       -53.9773879808
  H        -1.0658757772        1.0914018235       -0.1756901437
  H        -0.9136959068        0.1868388076       -0.1917670279
  I        -2.5642505283        3.4325327430       -2.5393909047
 Cl        -1.9603808005        2.7382088024       -0.2408962982
  I        -1.1881941135       -0.0385005151        1.7375971723
 Cl        -1.3685737567       -0.2758969740        4.1406342256
       6
 i =   137062, time =   137062.000, E =       -53.9775619327
  H        -1.0364311257        1.0991077125       -0.1834965041
  H        -0.9297052984        0.1840226550       -0.2191741333
  I        -2.5635324203        3.4329081013       -2.5407352400
 Cl        -1.9642968543        2.7375974325       -0.2406066787
  I        -1.1887958829       -0.0381521205        1.7396588159
 Cl        -1.3654381958       -0.2779835474        4.1387758562
       6
 i =   137063, time =   137063.000, E =       -53.9777556233
  H        -1.0094296482        1.1040349113       -0.1934935280
  H        -0.9447498101        0.1826125920       -0.2497782282
  I        -2.5628047709        3.4332836240       -2.5420641864
 Cl        -1.9682187390        2.7369507114       -0.2403696764
  I        -1.1893895482       -0.0377627692        1.7417455776
 Cl        -1.3623178289       -0.2801430759        4.1369782894
       6
 i =   137064, time =   137064.000, E =       -53.9782016845
  H        -0.9829207081        1.1048991055       -0.2063909973
  H        -0.9599686935        0.1835740770       -0.2849243596
  I        -2.5620067246        3.4336898578       -2.5434848479
 Cl        -1.9724745689        2.7362265957       -0.2401748095
  I        -1.1900217840       -0.0372984602        1.7440185939
 Cl        -1.3589567707       -0.2825529284        4.1350960920
       6
 i =   137065, time =   137065.000, E =       -53.9791413694
  H        -0.9595181092        1.1000555823       -0.2209503820
  H        -0.9738098366        0.1877704090       -0.3203759404
  I        -2.5612078767        3.4340903714       -2.5448690058
 Cl        -1.9766958605        2.7355033255       -0.2400496678
  I        -1.1906349945       -0.0367993132        1.7462673426
 Cl        -1.3556525275       -0.2849981273        4.1332955736
       6
 i =   137066, time =   137066.000, E =       -53.9807755962
  H        -0.9398289847        1.0887988871       -0.2366633805
  H        -0.9857340446        0.1954762692       -0.3543645620
  I        -2.5604264839        3.4344751717       -2.5461823314
 Cl        -1.9807927636        2.7348140573       -0.2400052347
  I        -1.1912143360       -0.0362790363        1.7484322787
 Cl        -1.3524813947       -0.2874154618        4.1316132641
       6
 i =   137067, time =   137067.000, E =       -53.9831095314
  H        -0.9234774131        1.0710206365       -0.2535682142
  H        -0.9957305138        0.2064267016       -0.3868259406
  I        -2.5596506866        3.4348491881       -2.5474420780
 Cl        -1.9848350468        2.7341642877       -0.2400490773
  I        -1.1917685156       -0.0357327968        1.7505418497
 Cl        -1.3493952286       -0.2898340846        4.1300164749
       6
 i =   137068, time =   137068.000, E =       -53.9858081685
  H        -0.9098568151        1.0474739951       -0.2717768546
  H        -1.0039613767        0.2194631780       -0.4184239838
  I        -2.5588615800        3.4352204171       -2.5486754034
 Cl        -1.9889281884        2.7335527270       -0.2401921895
  I        -1.1923111227       -0.0351502216        1.7526453853
 Cl        -1.3463194266       -0.2923058135        4.1284586212
       6
 i =   137069, time =   137069.000, E =       -53.9882592171
  H        -0.8979197670        1.0197904861       -0.2916315458
  H        -1.0109953509        0.2322267092       -0.4511162753
  I        -2.5580186412        3.4356064974       -2.5499405750
 Cl        -1.9932865258        2.7329592108       -0.2404546946
  I        -1.1928698403       -0.0345034068        1.7548492266
 Cl        -1.3430981813       -0.2949511160        4.1268530447
       6
 i =   137070, time =   137070.000, E =       -53.9897706881
  H        -0.8877897397        0.9945892914       -0.3106465933
  H        -1.0169398058        0.2391715255       -0.4834800214
  I        -2.5571813565        3.4359790296       -2.5511444749
 Cl        -1.9976038695        2.7324299858       -0.2408277760
  I        -1.1934056404       -0.0338400586        1.7569970816
 Cl        -1.3399593872       -0.2975773146        4.1253060671
       6
 i =   137071, time =   137071.000, E =       -53.9906039899
  H        -0.8785927370        0.9763906848       -0.3274971097
  H        -1.0226498070        0.2360841104       -0.5164712374
  I        -2.5563518712        3.4363365969       -2.5522830969
 Cl        -2.0018684476        2.7319637243       -0.2413134452
  I        -1.1939182221       -0.0331640597        1.7590827504
 Cl        -1.3369089996       -0.3001730026        4.1238165587
       6
 i =   137072, time =   137072.000, E =       -53.9909744545
  H        -0.8694073577        0.9655298456       -0.3424239963
  H        -1.0289134699        0.2215126485       -0.5523796927
  I        -2.5554799199        3.4367003797       -2.5534239296
 Cl        -2.0063363377        2.7315292333       -0.2419449564
  I        -1.1944388258       -0.0324353605        1.7612278719
 Cl        -1.3337618507       -0.3028920771        4.1222962190
       6
 i =   137073, time =   137073.000, E =       -53.9904295551
  H        -0.8608907520        0.9593145632       -0.3556340337
  H        -1.0352429533        0.1983347618       -0.5899793286
  I        -2.5545701326        3.4370679129       -2.5545587715
 Cl        -2.0109807849        2.7311271622       -0.2427240219
  I        -1.1949639685       -0.0316578507        1.7634119469
 Cl        -1.3305360473       -0.3057175441        4.1207621815
       6
 i =   137074, time =   137074.000, E =       -53.9891200995
  H        -0.8547994910        0.9530292748       -0.3674791161
  H        -1.0401668706        0.1733014361       -0.6248603994
  I        -2.5536816279        3.4374153609       -2.5556141916
 Cl        -2.0154976529        2.7307804249       -0.2435998541
  I        -1.1954592054       -0.0308826073        1.7654841218
 Cl        -1.3274406901       -0.3084643492        4.1193251739
       6
 i =   137075, time =   137075.000, E =       -53.9878568682
  H        -0.8516721444        0.9413881612       -0.3806079027
  H        -1.0431766472        0.1481939628       -0.6589496214
  I        -2.5527122486        3.4377825013       -2.5567108193
 Cl        -2.0204033302        2.7304463372       -0.2446753877
  I        -1.1959808063       -0.0300207961        1.7676725583
 Cl        -1.3241205687       -0.3114469559        4.1178334163
       6
 i =   137076, time =   137076.000, E =       -53.9878063705
  H        -0.8526639906        0.9221416745       -0.3951039802
  H        -1.0432978541        0.1279095348       -0.6883006483
  I        -2.5517276102        3.4381440646       -2.5577727917
 Cl        -2.0253619278        2.7301438175       -0.2458821583
  I        -1.1964927989       -0.0291310113        1.7698193981
 Cl        -1.3208017206       -0.3144619996        4.1164017474
       6
 i =   137077, time =   137077.000, E =       -53.9893864162
  H        -0.8578989881        0.8959399229       -0.4103959254
  H        -1.0404201831        0.1146798079       -0.7106049494
  I        -2.5507892321        3.4384777059       -2.5587353997
 Cl        -2.0300604621        2.7298832512       -0.2471417789
  I        -1.1969641491       -0.0282700649        1.7717884768
 Cl        -1.3176889044       -0.3173207749        4.1151254662
       6
 i =   137078, time =   137078.000, E =       -53.9921778681
  H        -0.8674842238        0.8622855920       -0.4273077498
  H        -1.0347051994        0.1063763130       -0.7281135050
  I        -2.5498228068        3.4388099674       -2.5596761579
 Cl        -2.0348666174        2.7296329992       -0.2485514722
  I        -1.1974335327       -0.0273707305        1.7737363723
 Cl        -1.3145328643       -0.3202496109        4.1139064488
       6
 i =   137079, time =   137079.000, E =       -53.9949923200
  H        -0.8812042235        0.8234546158       -0.4452787097
  H        -1.0266727648        0.0996046849       -0.7428058798
  I        -2.5487907988        3.4391531904       -2.5606300225
 Cl        -2.0399598657        2.7293706851       -0.2501696290
  I        -1.1979200683       -0.0263980960        1.7757372136
 Cl        -1.3112106403       -0.3233617905        4.1127035027
       6
 i =   137080, time =   137080.000, E =       -53.9965449749
  H        -0.8968843667        0.7884331415       -0.4607210019
  H        -1.0181134177        0.0895881131       -0.7559656092
  I        -2.5477766324        3.4394793430       -2.5615196153
 Cl        -2.0449225354        2.7291043535       -0.2518661511
  I        -1.1983859214       -0.0254310154        1.7776308482
 Cl        -1.3079890063       -0.3264061581        4.1116175358
       6
 i =   137081, time =   137081.000, E =       -53.9972071687
  H        -0.9146048981        0.7611037813       -0.4722839552
  H        -1.0094155240        0.0701229579       -0.7710881470
  I        -2.5467171867        3.4398086508       -2.5624007708
 Cl        -2.0500592163        2.7288062257       -0.2537457672
  I        -1.1988615652       -0.0244095457        1.7795368345
 Cl        -1.3046653389       -0.3295733302        4.1105857545
       6
 i =   137082, time =   137082.000, E =       -53.9973223316
  H        -0.9324660096        0.7464674182       -0.4779672510
  H        -1.0015251922        0.0415742227       -0.7875485117
  I        -2.5457256648        3.4401062830       -2.5631812678
 Cl        -2.0548188542        2.7284994810       -0.2556036090
  I        -1.1992973819       -0.0234432224        1.7812524035
 Cl        -1.3015921593       -0.3325266272        4.1097242146
       6
 i =   137083, time =   137083.000, E =       -53.9963195364
  H        -0.9519434699        0.7400206779       -0.4797320130
  H        -0.9934206904        0.0068966350       -0.8043458073
  I        -2.5447598465        3.4403859008       -2.5638983942
 Cl        -2.0594037190        2.7281636923       -0.2575100894
  I        -1.1997128557       -0.0224914822        1.7828511252
 Cl        -1.2986350461       -0.3353940043        4.1090007140
       6
 i =   137084, time =   137084.000, E =       -53.9941532474
  H        -0.9744889628        0.7353781097       -0.4803098838
  H        -0.9842463134       -0.0288981447       -0.8191842802
  I        -2.5437807341        3.4406594998       -2.5645836181
 Cl        -2.0639966677        2.7277768168       -0.2595370628
  I        -1.2001248844       -0.0215160683        1.7843932359
 Cl        -1.2956729082       -0.3382928800        4.1083967070
       6
 i =   137085, time =   137085.000, E =       -53.9920247944
  H        -1.0002292536        0.7272133783       -0.4820035296
  H        -0.9740220172       -0.0601811350       -0.8293563015
  I        -2.5427886061        3.4409275707       -2.5652385142
 Cl        -2.0685936224        2.7273299606       -0.2616806563
  I        -1.2005332042       -0.0205173389        1.7858722318
 Cl        -1.2927056912       -0.3412238337        4.1079258352
       6
 i =   137086, time =   137086.000, E =       -53.9911970384
  H        -1.0298082928        0.7117937643       -0.4863482200
  H        -0.9628189124       -0.0843710387       -0.8334352719
  I        -2.5417457106        3.4412006985       -2.5658890143
 Cl        -2.0733666097        2.7267965339       -0.2640209433
  I        -1.2009532217       -0.0194573127        1.7873381127
 Cl        -1.2896200848       -0.3442996516        4.1075849518
       6
 i =   137087, time =   137087.000, E =       -53.9922723233
  H        -1.0620449987        0.6881544177       -0.4938117427
  H        -0.9515381953       -0.0992718377       -0.8305942395
  I        -2.5406741893        3.4414733848       -2.5665220963
 Cl        -2.0782112812        2.7261765020       -0.2665071617
  I        -1.2013762287       -0.0183583022        1.7887551566
 Cl        -1.2864810037       -0.3474564634        4.1073942778
       6
 i =   137088, time =   137088.000, E =       -53.9947380949
  H        -1.0953107711        0.6581367739       -0.5037373149
  H        -0.9411139181       -0.1051025772       -0.8214729814
  I        -2.5396093316        3.4417370970       -2.5671185977
 Cl        -2.0829671256        2.7254798962       -0.2690540683
  I        -1.2017891569       -0.0172563483        1.7900771156
 Cl        -1.2833900098       -0.3505919838        4.1073651034
       6
 i =   137089, time =   137089.000, E =       -53.9974206472
  H        -1.1303857294        0.6239642715       -0.5151845582
  H        -0.9313447388       -0.1048594267       -0.8073670184
  I        -2.5385193097        3.4420000920       -2.5676979469
 Cl        -2.0877764730        2.7246764790       -0.2717344156
  I        -1.2022055297       -0.0161182144        1.7913464092
 Cl        -1.2802526452       -0.3538016751        4.1074980222
       6
 i =   137090, time =   137090.000, E =       -53.9990794567
  H        -1.1666848746        0.5915909362       -0.5259218851
  H        -0.9218485123       -0.1031982721       -0.7910588923
  I        -2.5374393034        3.4422542026       -2.5682429479
 Cl        -2.0924860274        2.7237857619       -0.2744584924
  I        -1.2026131981       -0.0149803595        1.7925265364
 Cl        -1.2771680421       -0.3569836590        4.1077882207
       6
 i =   137091, time =   137091.000, E =       -53.9996593753
  H        -1.2073523980        0.5646438761       -0.5345913256
  H        -0.9106444378       -0.1051153386       -0.7740410888
  I        -2.5363152435        3.4425124591       -2.5687821675
 Cl        -2.0973343933        2.7227585328       -0.2773600860
  I        -1.2030336554       -0.0137856398        1.7936801740
 Cl        -1.2739800111       -0.3602986745        4.1082510024
       6
 i =   137092, time =   137092.000, E =       -53.9994810977
  H        -1.2516087154        0.5470327428       -0.5399231753
  H        -0.8970088701       -0.1130611101       -0.7581341097
  I        -2.5351985599        3.4427635295       -2.5692925384
 Cl        -2.1021027619        2.7216368813       -0.2803032878
  I        -1.2034484058       -0.0125887276        1.7947559788
 Cl        -1.2708328647       -0.3635959794        4.1088673381
       6
 i =   137093, time =   137093.000, E =       -53.9982545660
  H        -1.2978098495        0.5369553514       -0.5425252936
  H        -0.8819746559       -0.1247297482       -0.7427708323
  I        -2.5341075353        3.4430041976       -2.5697685290
 Cl        -2.1067170951        2.7204354214       -0.2832341199
  I        -1.2038510869       -0.0114097954        1.7957367821
 Cl        -1.2677761941       -0.3668216934        4.1096262127
       6
 i =   137094, time =   137094.000, E =       -53.9959623059
  H        -1.3437272074        0.5297472810       -0.5436561659
  H        -0.8680760156       -0.1356438004       -0.7261176351
  I        -2.5330278127        3.4432386930       -2.5702194832
 Cl        -2.1112422040        2.7191346091       -0.2861849032
  I        -1.2042471218       -0.0102343109        1.7966336273
 Cl        -1.2647680311       -0.3700176237        4.1105377028
       6
 i =   137095, time =   137095.000, E =       -53.9938017984
  H        -1.3835635581        0.5218816070       -0.5440770988
  H        -0.8591016733       -0.1412425659       -0.7079468272
  I        -2.5320231886        3.4434543216       -2.5706221748
 Cl        -2.1154162535        2.7178126769       -0.2889741032
  I        -1.2046132018       -0.0091332551        1.7973928973
 Cl        -1.2619840777       -0.3729937374        4.1115444395
       6
 i =   137096, time =   137096.000, E =       -53.9926301516
  H        -1.4208975270        0.5098769242       -0.5440863171
  H        -0.8559812060       -0.1400617627       -0.6849209543
  I        -2.5309424128        3.4436844926       -2.5710396280
 Cl        -2.1198720691        2.7162707614       -0.2920166621
  I        -1.2050045836       -0.0079422265        1.7981264633
 Cl        -1.2590036821       -0.3761968260        4.1127996975
       6
 i =   137097, time =   137097.000, E =       -53.9931794551