       8
 i =    41926, time =    41926.000, E =       -54.1261424147
  N         5.0422697640        6.0166302773        6.0033456208
  O         4.2367344986        5.1664918334        5.1335218648
  N         6.3018117006        5.8573969855        5.7527672488
  O         7.3240517651        6.3360494778        6.2951573617
  H         3.3519613327        5.3731858051        5.5237018910
  H         6.3889599768        5.2686324848        4.8938766721
  H         6.2216894828        8.1493417259        4.5553643927
  H         6.9029489211        8.1772251812        4.4343810952
       8
 i =    41927, time =    41927.000, E =       -54.1241294476
  N         5.0454292795        6.0111968774        5.9990972894
  O         4.2276052271        5.1644528078        5.1335438147
  N         6.2999397324        5.8685870527        5.7535415280
  O         7.3318578396        6.3343198417        6.2993913383
  H         3.3794462362        5.3701027266        5.5131118523
  H         6.3808593715        5.2569207444        4.8962971271
  H         6.2096851237        8.1248094703        4.5446943088
  H         6.8985170989        8.1960707829        4.4301976298
       8
 i =    41928, time =    41928.000, E =       -54.1204753670
  N         5.0486997087        6.0066944492        5.9962123566
  O         4.2193470609        5.1621093184        5.1329514068
  N         6.2974415129        5.8787210228        5.7529782236
  O         7.3394124346        6.3328632567        6.3036277903
  H         3.3979942407        5.3698660906        5.5067867508
  H         6.3798515307        5.2461049603        4.9023292396
  H         6.1874575939        8.0996038562        4.5352250794
  H         6.9040476035        8.2139179112        4.4264833450
       8
 i =    41929, time =    41929.000, E =       -54.1181077389
  N         5.0518301626        6.0032923842        5.9948503462
  O         4.2129002317        5.1592502653        5.1313490174
  N         6.2946765778        5.8874873157        5.7509215035
  O         7.3465027826        6.3316750812        6.3077778809
  H         3.3940375508        5.3760466934        5.5109956284
  H         6.3862505502        5.2380725063        4.9131950577
  H         6.1689851496        8.0756657059        4.5246405882
  H         6.9055657216        8.2287997184        4.4256415683
       8
 i =    41930, time =    41930.000, E =       -54.1188808712
  N         5.0545753894        6.0011112209        5.9950961371
  O         4.2082812485        5.1559147111        5.1287766149
  N         6.2920532123        5.8946687559        5.7474023837
  O         7.3528902122        6.3307530526        6.3117325161
  H         3.3687854568        5.3885464213        5.5253396849
  H         6.3997810983        5.2337284202        4.9285810835
  H         6.1635203078        8.0553913036        4.5118211294
  H         6.8939298065        8.2383715489        4.4288903790
       8
 i =    41931, time =    41931.000, E =       -54.1189683178
  N         5.0567482152        6.0001955978        5.9969404853
  O         4.2046181045        5.1523829471        5.1256872425
  N         6.2899562810        5.9002059051        5.7426338598
  O         7.3583758056        6.3300956523        6.3153941771
  H         3.3369729639        5.4034506444        5.5429950662
  H         6.4196238940        5.2327725712        4.9466963669
  H         6.1705549122        8.0394334819        4.4971590726
  H         6.8697997721        8.2420716936        4.4358844858
       8
 i =    41932, time =    41932.000, E =       -54.1162938023
  N         5.0582840124        6.0005081742        6.0003317697
  O         4.2009041111        5.1489013446        5.1225146061
  N         6.2886627829        5.9042787345        5.7368684225
  O         7.3629107267        6.3296933530        6.3187530720
  H         3.3132412487        5.4165825280        5.5569423709
  H         6.4450034092        5.2338162878        4.9650170096
  H         6.1802619744        8.0252812011        4.4816049075
  H         6.8428279757        8.2422728096        4.4455404219
       8
 i =    41933, time =    41933.000, E =       -54.1145944702
  N         5.0591559915        6.0019577479        6.0050469123
  O         4.1966314809        5.1457467818        5.1196355503
  N         6.2884149922        5.9069977035        5.7306232832
  O         7.3663115747        6.3295585266        6.3216915414
  H         3.3068995066        5.4247516368        5.5623586505
  H         6.4740994503        5.2348476864        4.9799717484
  H         6.1784001666        8.0087866238        4.4662796333
  H         6.8276431617        8.2434082983        4.4568422510
       8
 i =    41934, time =    41934.000, E =       -54.1159432210
  N         5.0594795784        6.0044652175        6.0110611326
  O         4.1914893678        5.1429105456        5.1170779679
  N         6.2893430582        5.9086560731        5.7240898741
  O         7.3686114333        6.3296943333        6.3242609789
  H         3.3198321391        5.4271173141        5.5579726254
  H         6.5063453052        5.2341441311        4.9893950051
  H         6.1611265443        7.9877114282        4.4502175435
  H         6.8275282394        8.2471753053        4.4706325127
       8
 i =    41935, time =    41935.000, E =       -54.1161930327
  N         5.0594416368        6.0078140485        6.0179330204
  O         4.1859105214        5.1404759279        5.1148702436
  N         6.2914804761        5.9093430046        5.7178485104
  O         7.3696578496        6.3301021905        6.3263174700
  H         3.3470865658        5.4244502858        5.5456614574
  H         6.5384935872        5.2311455753        4.9917999970
  H         6.1405226856        7.9669610503        4.4336779086
  H         6.8310701415        8.2492849579        4.4867675402
       8
 i =    41936, time =    41936.000, E =       -54.1142138943
  N         5.0593288732        6.0118380645        6.0253890333
  O         4.1805325012        5.1382639023        5.1127223472
  N         6.2948310722        5.9091388769        5.7120807696
  O         7.3694283599        6.3307830556        6.3278332263
  H         3.3774709185        5.4199290098        5.5305685855
  H         6.5681629553        5.2268301706        4.9880417601
  H         6.1288334857        7.9514434670        4.4173829922
  H         6.8259893456        8.2447198446        4.5045376387
       8
 i =    41937, time =    41937.000, E =       -54.1124212614
  N         5.0594474910        6.0163875801        6.0332041540
  O         4.1762530026        5.1359741577        5.1101816965
  N         6.2993665737        5.9080484358        5.7068625711
  O         7.3679142748        6.3317404707        6.3287857641
  H         3.3955488481        5.4184940610        5.5201751677
  H         6.5929246853        5.2231456723        4.9801361537
  H         6.1301785150        7.9429224302        4.4021806563
  H         6.8081015130        8.2315364936        4.5231371927
       8
 i =    41938, time =    41938.000, E =       -54.1127166326
  N         5.0601205379        6.0215367156        6.0415256764
  O         4.1735622019        5.1332638690        5.1067830349
  N         6.3052376217        5.9059938810        5.7020322727
  O         7.3650272508        6.3330270119        6.3291815303
  H         3.3903484112        5.4240908226        5.5197764367
  H         6.6115357475        5.2219643518        4.9698338578
  H         6.1399281993        7.9390172159        4.3871905434
  H         6.7812829264        8.2109745361        4.5436877090
       8
 i =    41939, time =    41939.000, E =       -54.1132857375
  N         5.0616547960        6.0270472645        6.0499708218
  O         4.1723234362        5.1302577289        5.1026961613
  N         6.3121862784        5.9030285893        5.6978150385
  O         7.3608301366        6.3346230758        6.3289710240
  H         3.3642774832        5.4357466352        5.5279488152
  H         6.6217099239        5.2247318494        4.9589071663
  H         6.1458635110        7.9344727588        4.3704479551
  H         6.7581943118        8.1887099671        4.5681425781
       8
 i =    41940, time =    41940.000, E =       -54.1134417381
  N         5.0643044670        6.0326952717        6.0582038648
  O         4.1716233939        5.1273418378        5.0984586594
  N         6.3198441273        5.8993056723        5.6944479842
  O         7.3554588431        6.3364948682        6.3281374798
  H         3.3319182887        5.4481013488        5.5371375317
  H         6.6224694615        5.2316724434        4.9480992072
  H         6.1383517221        7.9247417007        4.3493319641
  H         6.7488599779        8.1697517119        4.5990530555
       8
 i =    41941, time =    41941.000, E =       -54.1122922409
  N         5.0681278833        6.0380734726        6.0656561687
  O         4.1705978530        5.1249854492        5.0947192259
  N         6.3274733834        5.8952046816        5.6922797330
  O         7.3493212791        6.3385241546        6.3267366572
  H         3.3086962273        5.4555376437        5.5399390833
  H         6.6142967215        5.2414785081        4.9373926013
  H         6.1234008118        7.9116780496        4.3268189498
  H         6.7482062497        8.1538219698        4.6329358865
       8
 i =    41942, time =    41942.000, E =       -54.1109835991
  N         5.0733176806        6.0431989911        6.0723868421
  O         4.1687448463        5.1232991209        5.0916046760
  N         6.3348365108        5.8908620153        5.6914311477
  O         7.3424690481        6.3407329843        6.3247727556
  H         3.3014495446        5.4557003700        5.5330268798
  H         6.5984666103        5.2526545202        4.9251987435
  H         6.1133545957        7.8991919583        4.3085505188
  H         6.7435933060        8.1365125688        4.6643450609
       8
 i =    41943, time =    41943.000, E =       -54.1120127636
  N         5.0798444303        6.0479203967        6.0782361080
  O         4.1660287619        5.1223091122        5.0891542869
  N         6.3414029739        5.8865391833        5.6920378412
  O         7.3352226189        6.3430830189        6.3223200183
  H         3.3112066295        5.4485496693        5.5165052696
  H         6.5770450524        5.2632766070        4.9102273081
  H         6.1156093016        7.8897764313        4.2995040203
  H         6.7278613555        8.1158587259        4.6880727648
       8
 i =    41944, time =    41944.000, E =       -54.1133168240
  N         5.0880430228        6.0524240137        6.0834793304
  O         4.1626407700        5.1218207612        5.0870436143
  N         6.3470950477        5.8821221861        5.6941574272
  O         7.3274531310        6.3457104634        6.3193055974
  H         3.3334043535        5.4359993746        5.4925639073
  H         6.5506670591        5.2727958065        4.8909627877
  H         6.1293734939        7.8823708292        4.2996361306
  H         6.7011383562        8.0914673381        4.7049492011
       8
 i =    41945, time =    41945.000, E =       -54.1104903215
  N         5.0978901451        6.0566764986        6.0881312554
  O         4.1593301982        5.1215316112        5.0848664504
  N         6.3515142218        5.8775895779        5.6976795042
  O         7.3194185104        6.3486607281        6.3157845108
  H         3.3564971287        5.4228285099        5.4673770533
  H         6.5207376265        5.2812405697        4.8680413471
  H         6.1462888176        7.8737206287        4.3039810266
  H         6.6718254151        8.0666117877        4.7200815480
       8
 i =    41946, time =    41946.000, E =       -54.1069913462
  N         5.1090585349        6.0605749176        6.0921605038
  O         4.1571930179        5.1210410542        5.0821444546
  N         6.3542281055        5.8729046034        5.7022249410
  O         7.3115743917        6.3519335949        6.3119083315
  H         3.3642138161        5.4157233787        5.4495312199
  H         6.4892239464        5.2895167163        4.8441877409
  H         6.1543768959        7.8596262166        4.3035658565
  H         6.6521798878        8.0461873524        4.7421693696
       8
 i =    41947, time =    41947.000, E =       -54.1073670007
  N         5.1212078781        6.0640847028        6.0956375807
  O         4.1568231916        5.1201076157        5.0786056686
  N         6.3549562723        5.8679439029        5.7073202998
  O         7.3043035560        6.3555599083        6.3078101184
  H         3.3477939398        5.4184888323        5.4436429958
  H         6.4578946356        5.2989958387        4.8227716684
  H         6.1507907707        7.8390676159        4.2952436996
  H         6.6451786064        8.0315867528        4.7742189981
       8
 i =    41948, time =    41948.000, E =       -54.1061581314
  N         5.1338915454        6.0671899160        6.0986708862
  O         4.1577393258        5.1188837213        5.0744769739
  N         6.3535667069        5.8626119167        5.7124827221
  O         7.2979587326        6.3595583959        6.3036226496
  H         3.3153411519        5.4285983389        5.4464387138
  H         6.4285878288        5.3106195888        4.8068287666
  H         6.1447018001        7.8156991571        4.2869545729
  H         6.6417711736        8.0196277087        4.8080526387
       8
 i =    41949, time =    41949.000, E =       -54.1020005161
  N         5.1470602042        6.0700106100        6.1015118573
  O         4.1589250383        5.1176793386        5.0700669096
  N         6.3500357455        5.8566782989        5.7175100351
  O         7.2926007740        6.3640838104        6.2992952288
  H         3.2825160027        5.4406045392        5.4509286602
  H         6.4020557039        5.3249086958        4.7976445468
  H         6.1451642594        7.7926786527        4.2880062384
  H         6.6326603799        8.0062941324        4.8351096221
       8
 i =    41950, time =    41950.000, E =       -54.0982695242
  N         5.1601523995        6.0725824938        6.1043423360
  O         4.1594998992        5.1167879638        5.0657350324
  N         6.3445782634        5.8501646705        5.7221482371
  O         7.2884315572        6.3691381452        6.2948775436
  H         3.2632043986        5.4496466172        5.4513778761
  H         6.3799270976        5.3410208253        4.7955443979
  H         6.1553120009        7.7717063928        4.3025226043
  H         6.6147663263        7.9901618987        4.8511869521
       8
 i =    41951, time =    41951.000, E =       -54.0951855096
  N         5.1726578726        6.0749933906        6.1074131142
  O         4.1590062188        5.1163467545        5.0616094332
  N         6.3375863382        5.8431014556        5.7263253162
  O         7.2855127983        6.3747479402        6.2903268077
  H         3.2642670856        5.4532940913        5.4449640800
  H         6.3633024168        5.3573456393        4.7991892174
  H         6.1717663711        7.7513395315        4.3273269949
  H         6.5914117035        7.9725036746        4.8597691619
       8
 i =    41952, time =    41952.000, E =       -54.0916895262
  N         5.1835062894        6.0772547247        6.1108775054
  O         4.1574366960        5.1163618438        5.0578053368
  N         6.3299451809        5.8358634701        5.7299204927
  O         7.2839238755        6.3806841687        6.2857421796
  H         3.2855994252        5.4513911408        5.4319777337
  H         6.3535424145        5.3709357297        4.8056883736
  H         6.1854305016        7.7280270439        4.3513166704
  H         6.5718950383        7.9581948035        4.8709753840
       8
 i =    41953, time =    41953.000, E =       -54.0887087546
  N         5.1924141468        6.0795465858        6.1151147044
  O         4.1551481804        5.1166695430        5.0539864615
  N         6.3221645739        5.8283563565        5.7331524876
  O         7.2835180749        6.3870915731        6.2808795902
  H         3.3209645953        5.4464080854        5.4149077886
  H         6.3507029706        5.3796697018        4.8118871644
  H         6.1896594364        7.6965218098        4.3656530098
  H         6.5626081205        7.9512502324        4.8950056422
       8
 i =    41954, time =    41954.000, E =       -54.0834046196
  N         5.1989067892        6.0820164033        6.1204705617
  O         4.1529666438        5.1169316199        5.0496566442
  N         6.3148972494        5.8205437751        5.7361905652
  O         7.2841736473        6.3940441090        6.2755185478
  H         3.3567842473        5.4437796703        5.3994874616
  H         6.3548624863        5.3814146369        4.8150775597
  H         6.1869644866        7.6569994177        4.3735757757
  H         6.5608735726        7.9508380294        4.9296200949
       8
 i =    41955, time =    41955.000, E =       -54.0781843945
  N         5.2021711942        6.0846301461        6.1269859379
  O         4.1520957997        5.1166834866        5.0446024819
  N         6.3092363768        5.8128712144        5.7390571249
  O         7.2856926188        6.4011490541        6.2698918088
  H         3.3730432632        5.4510391928        5.3943789872
  H         6.3653666559        5.3748979395        4.8143178378
  H         6.1857132189        7.6172978788        4.3868892003
  H         6.5584074353        7.9512853822        4.9613363898
       8
 i =    41956, time =    41956.000, E =       -54.0784762900
  N         5.2020247503        6.0874223963        6.1346749395
  O         4.1529450691        5.1157151873        5.0384398866
  N         6.3057090650        5.8052847641        5.7416623770
  O         7.2879278155        6.4083864069        6.2637083961
  H         3.3624272790        5.4714646648        5.4024964350
  H         6.3812619262        5.3602812525        4.8112306037
  H         6.1912525522        7.5823115079        4.4141969297
  H         6.5497049250        7.9476871173        4.9818473578
       8
 i =    41957, time =    41957.000, E =       -54.0796468956
  N         5.1986086276        6.0901643836        6.1429909085
  O         4.1546551221        5.1144144478        5.0318678622
  N         6.3047912173        5.7982572583        5.7438448851
  O         7.2905832938        6.4152477572        6.2572191340
  H         3.3372040026        5.4986026711        5.4176219098
  H         6.4000105823        5.3397917134        4.8095999807
  H         6.2034122538        7.5554628859        4.4545344701
  H         6.5349641719        7.9393333396        4.9893182137
       8
 i =    41958, time =    41958.000, E =       -54.0768599486
  N         5.1922650959        6.0927892557        6.1519451229
  O         4.1560971956        5.1132794687        5.0252387905
  N         6.3064089521        5.7916581152        5.7457487485
  O         7.2935946687        6.4218507810        6.2501462720
  H         3.3141683615        5.5246949954        5.4314050225
  H         6.4203119137        5.3145862610        4.8131889206
  H         6.2179623370        7.5321758086        4.5017256463
  H         6.5182082851        7.9303141813        4.9911742234
       8
 i =    41959, time =    41959.000, E =       -54.0736964760
  N         5.1839186442        6.0949803561        6.1608353619
  O         4.1563990301        5.1127585508        5.0192395523
  N         6.3101825545        5.7859007526        5.7475096475
  O         7.2967173303        6.4278443652        6.2427283670
  H         3.3061920019        5.5422433266        5.4369118166
  H         6.4395239167        5.2873185829        4.8245616340
  H         6.2271079246        7.5053258033        4.5416333491
  H         6.5072371044        7.9296677420        4.9991741736
       8
 i =    41960, time =    41960.000, E =       -54.0743960089
  N         5.1743776215        6.0965130000        6.1692763793
  O         4.1552698179        5.1130210975        5.0140717401
  N         6.3155776994        5.7811521666        5.7494696505
  O         7.2998464147        6.4331703235        6.2349693435
  H         3.3172890624        5.5484878447        5.4315607549
  H         6.4561847348        5.2591858359        4.8444897145
  H         6.2279147916        7.4715913802        4.5685299314
  H         6.5048889080        7.9412747835        5.0183154632
       8
 i =    41961, time =    41961.000, E =       -54.0749185531
  N         5.1643600983        6.0971933206        6.1769603694
  O         4.1528596573        5.1140213576        5.0096974769
  N         6.3220246400        5.7775370755        5.7520693861
  O         7.3029271727        6.4378346841        6.2268525140
  H         3.3447781580        5.5441788958        5.4161416711
  H         6.4695010574        5.2304341094        4.8720555621
  H         6.2248946363        7.4398521436        4.5889475591
  H         6.5064918571        7.9567701129        5.0413355044
       8
 i =    41962, time =    41962.000, E =       -54.0729110176
  N         5.1540448288        6.0968774448        6.1839500900
  O         4.1496226791        5.1155415189        5.0056806268
  N         6.3292587378        5.7750278466        5.7559145054
  O         7.3060762676        6.4420630995        6.2180039098
  H         3.3808019715        5.5333474808        5.3940186916
  H         6.4797260535        5.1992155596        4.9063914493
  H         6.2231935318        7.4207185328        4.6117108960
  H         6.5066441021        7.9655548613        5.0605786393
       8
 i =    41963, time =    41963.000, E =       -54.0698615046
  N         5.1443842797        6.0954491967        6.1897175222
  O         4.1467170426        5.1170042259        5.0017171901
  N         6.3364471668        5.7738315755        5.7612911123
  O         7.3091821932        6.4457206554        6.2087866308
  H         3.4077348370        5.5247304288        5.3738263510
  H         6.4864788075        5.1657327455        4.9433432554
  H         6.2248595489        7.4209481697        4.6386790527
  H         6.5031528504        7.9620071874        5.0719111434
       8
 i =    41964, time =    41964.000, E =       -54.0694473151
  N         5.1360449689        6.0929190716        6.1939801018
  O         4.1452771090        5.1178179658        4.9974494494
  N         6.3428802400        5.7739726022        5.7682590948
  O         7.3122041659        6.4487709924        6.1995232681
  H         3.4086413062        5.5273251524        5.3640706841
  H         6.4898600645        5.1302067967        4.9794014134
  H         6.2278567232        7.4372643580        4.6657940429
  H         6.4979402304        7.9497666649        5.0780424273
       8
 i =    41965, time =    41965.000, E =       -54.0710477306
  N         5.1290237251        6.0892335018        6.1968332638
  O         4.1453735288        5.1179595323        4.9927256272
  N         6.3483591952        5.7753174283        5.7770305903
  O         7.3153235163        6.4514049432        6.1899833460
  H         3.3823542454        5.5420090491        5.3649325134
  H         6.4902245322        5.0917088568        5.0148981124
  H         6.2268231300        7.4592199185        4.6856836394
  H         6.4961651011        7.9393547651        5.0875005418
       8
 i =    41966, time =    41966.000, E =       -54.0728575580
  N         5.1235422929        6.0844967926        6.1982630995
  O         4.1461056085        5.1179306681        4.9880551962
  N         6.3525126630        5.7775755063        5.7873324438
  O         7.3186156457        6.4537046557        6.1803321135
  H         3.3440850299        5.5605832558        5.3691283872
  H         6.4876580846        5.0522015777        5.0503146674
  H         6.2160826289        7.4757884915        4.6901437817
  H         6.5034035097        7.9414620965        5.1084760999
       8
 i =    41967, time =    41967.000, E =       -54.0731825616
  N         5.1196469516        6.0788260908        6.1983432680
  O         4.1464516741        5.1182891423        4.9839195871
  N         6.3551261926        5.7803358585        5.7988753032
  O         7.3221864903        6.4557916703        6.1706363960
  H         3.3107870062        5.5740532562        5.3688910458
  H         6.4822449602        5.0142431218        5.0874040734
  H         6.1969608864        7.4892349825        4.6819870683
  H         6.5181779222        7.9536101075        5.1384845848
       8
 i =    41968, time =    41968.000, E =       -54.0724844359
  N         5.1173252600        6.0724190121        6.1971895039
  O         4.1458039487        5.1193517915        4.9806015783
  N         6.3560541066        5.7831192586        5.8112762655
  O         7.3261025035        6.4577663003        6.1610122313
  H         3.2931812404        5.5770899439        5.3599658483
  H         6.4742705694        4.9808183544        5.1275397972
  H         6.1768976695        7.5097369180        4.6726761362
  H         6.5329237167        7.9652632727        5.1663459960
       8
 i =    41969, time =    41969.000, E =       -54.0746138282
  N         5.1164028467        6.0652246316        6.1948957605
  O         4.1439636015        5.1212391057        4.9780246459
  N         6.3552482543        5.7856059913        5.8247290603
  O         7.3305797754        6.4597993197        6.1511386327
  H         3.2943662562        5.5683388230        5.3410964158
  H         6.4639371427        4.9528183506        5.1729789884
  H         6.1612609995        7.5440275465        4.6711799850
  H         6.5419740138        7.9706386466        5.1843783385
       8
 i =    41970, time =    41970.000, E =       -54.0788280883
  N         5.1167403760        6.0575789076        6.1916687499
  O         4.1411867768        5.1237821301        4.9760982981
  N         6.3527002926        5.7874176495        5.8387924616
  O         7.3355855407        6.4619389802        6.1412128725
  H         3.3118040601        5.5498920365        5.3145345629
  H         6.4522288573        4.9316733471        5.2226858574
  H         6.1522774764        7.5909607803        4.6806147328
  H         6.5432046528        7.9697792010        5.1898207472
       8
 i =    41971, time =    41971.000, E =       -54.0792775818
  N         5.1180960283        6.0496276724        6.1876728292
  O         4.1381252677        5.1266308479        4.9744720041
  N         6.3484582820        5.7883664056        5.8534914840
  O         7.3411829399        6.4642741592        6.1311353748
  H         3.3358941636        5.5272441338        5.2848933739
  H         6.4401104672        4.9165461997        5.2759027407
  H         6.1465580154        7.6452871014        4.6968815437
  H         6.5399697694        7.9678952880        5.1875238469
       8
 i =    41972, time =    41972.000, E =       -54.0759298846
  N         5.1200740339        6.0419386765        6.1832920291
  O         4.1360149309        5.1290794251        4.9727217634
  N         6.3429058434        5.7883520548        5.8681810793
  O         7.3471034907        6.4667476056        6.1212960440
  H         3.3489726806        5.5102735014        5.2606933169
  H         6.4293605588        4.9058262316        5.3284178067
  H         6.1360061054        7.6963832520        4.7089916440
  H         6.5408024143        7.9728847344        5.1884598770
       8
 i =    41973, time =    41973.000, E =       -54.0768662342
  N         5.1222527235        6.0347979990        6.1787675310
  O         4.1358100566        5.1306243743        4.9704513560
  N         6.3364265379        5.7874292985        5.8828127240
  O         7.3532283981        6.4693544006        6.1116842517
  H         3.3367612606        5.5063724847        5.2477807290
  H         6.4213281310        4.8962268851        5.3776658375
  H         6.1142211571        7.7397115840        4.7097981441
  H         6.5522022661        7.9885158359        5.2002369648
       8
 i =    41974, time =    41974.000, E =       -54.0785245682
  N         5.1241477220        6.0286015475        6.1743939074
  O         4.1373660271        5.1312700306        4.9677041868
  N         6.3296225380        5.7856995193        5.8971338663
  O         7.3593062119        6.4720237666        6.1024144660
  H         3.3023386320        5.5144281674        5.2455759124
  H         6.4172946184        4.8846629384        5.4208007993
  H         6.0861783043        7.7781117837        4.7053957122
  H         6.5694125573        8.0103520162        5.2169921723
       8
 i =    41975, time =    41975.000, E =       -54.0759758148
  N         5.1253557428        6.0234750856        6.1702635114
  O         4.1396524153        5.1314712695        4.9647184472
  N         6.3229029295        5.7831413771        5.9114382204
  O         7.3653103853        6.4747765327        6.0932163307
  H         3.2620574570        5.5268289427        5.2484291899
  H         6.4179486223        4.8689921647        5.4578275148
  H         6.0611423930        7.8176546396        4.7068598569
  H         6.5829298358        8.0330935425        5.2283874342
       8
 i =    41976, time =    41976.000, E =       -54.0731004331
  N         5.1254073906        6.0199131378        6.1667509875
  O         4.1414970753        5.1316374195        4.9619410842
  N         6.3172224756        5.7798052487        5.9248500136
  O         7.3707456534        6.4774101069        6.0845371562
  H         3.2346807261        5.5355021140        5.2509350077
  H         6.4234130551        4.8504514166        5.4872100379