       8
 i =    19500, time =    19500.000, E =       -54.0665163888
  N         6.2215528706        5.8447269991        6.0711684308
  O         7.4323786145        5.8268218185        6.0051303034
  N         5.1593621920        6.2715805902        5.6555370838
  O         3.9326624493        6.2552740093        5.5493694793
  H         5.4384834130        3.4585911109        3.4052614498
  H         5.6618863215        3.8345365918        2.7565042000
  H         4.7531179180        3.0507787409        6.1160224931
  H         5.1564571018        3.0421574627        5.5202897662
       8
 i =    19501, time =    19501.000, E =       -54.0684672096
  N         6.2204423086        5.8422798228        6.0716565199
  O         7.4386108257        5.8289994890        6.0024261942
  N         5.1617403342        6.2695623779        5.6560405854
  O         3.9246476701        6.2553257047        5.5497470370
  H         5.4646959315        3.4730560974        3.4038000313
  H         5.6591179739        3.8262526598        2.7903500463
  H         4.7650256643        3.0458722467        6.1126759352
  H         5.1345119367        3.0668502625        5.5132806030
       8
 i =    19502, time =    19502.000, E =       -54.0666887742
  N         6.2179529466        5.8397363794        6.0721143289
  O         7.4451387993        5.8312741922        5.9997013967
  N         5.1645401634        6.2677479742        5.6562469775
  O         3.9171770862        6.2551823998        5.5504091208
  H         5.4915096233        3.4889037169        3.4001498139
  H         5.6556400720        3.8168304654        2.8267284535
  H         4.7713040482        3.0407115205        6.1184810254
  H         5.1182500304        3.0918074543        5.4970275396
       8
 i =    19503, time =    19503.000, E =       -54.0654158232
  N         6.2146085398        5.8370063226        6.0725384319
  O         7.4518138089        5.8337041734        5.9969017592
  N         5.1672565863        6.2660821279        5.6561226508
  O         3.9103507291        6.2548532202        5.5513912030
  H         5.5134614938        3.4941020452        3.4160699312
  H         5.6577268285        3.8185888979        2.8448793672
  H         4.7745744063        3.0349920709        6.1302321612
  H         5.1047052065        3.1179969759        5.4745502113
       8
 i =    19504, time =    19504.000, E =       -54.0667695082
  N         6.2112441754        5.8342350729        6.0728953145
  O         7.4578849811        5.8361258664        5.9942266964
  N         5.1691694982        6.2646733547        5.6556366074
  O         3.9048510246        6.2543737093        5.5526388418
  H         5.5288805129        3.4860839536        3.4548157669
  H         5.6656729461        3.8337285030        2.8396540265
  H         4.7795664737        3.0299684297        6.1381119171
  H         5.0897630774        3.1430387740        5.4562726297
       8
 i =    19505, time =    19505.000, E =       -54.0644702936
  N         6.2083089123        5.8313181853        6.0731933181
  O         7.4632443280        5.8385979106        5.9916168361
  N         5.1699027113        6.2634845390        5.6547460148
  O         3.9006928426        6.2537438172        5.5541882838
  H         5.5436269911        3.4764179515        3.4970467924
  H         5.6743973525        3.8509275879        2.8317744731
  H         4.7890980108        3.0266416132        6.1362432026
  H         5.0703194710        3.1666701262        5.4475218441
       8
 i =    19506, time =    19506.000, E =       -54.0630628693
  N         6.2064218969        5.8284851131        6.0734034004
  O         7.4672535392        5.8409094044        5.9892935351
  N         5.1691582184        6.2626041977        5.6535192364
  O         3.8982870508        6.2530270295        5.5559051081
  H         5.5599497618        3.4753827472        3.5227444400
  H         5.6798140337        3.8593282202        2.8388538244
  H         4.8017977990        3.0255382717        6.1252752424
  H         5.0485512696        3.1868220096        5.4482741259
       8
 i =    19507, time =    19507.000, E =       -54.0647084084
  N         6.2057311789        5.8257818669        6.0735111162
  O         7.4698030697        5.8430335271        5.9872730878
  N         5.1669814282        6.2620069923        5.6520075471
  O         3.8975786656        6.2522424946        5.5577503885
  H         5.5780433691        3.4848652849        3.5283141938
  H         5.6816128200        3.8570085094        2.8642388670
  H         4.8146676349        3.0253912425        6.1120884761
  H         5.0274838306        3.2046177730        5.4517512677
       8
 i =    19508, time =    19508.000, E =       -54.0658175000
  N         6.2061425786        5.8230849929        6.0734966534
  O         7.4710275782        5.8450976834        5.9854231085
  N         5.1634523991        6.2616139468        5.6501771952
  O         3.8984044167        6.2513466012        5.5598163771
  H         5.5975127044        3.5012086171        3.5214573780
  H         5.6814786356        3.8481026346        2.9018820501
  H         4.8255772576        3.0239785286        6.1044263991
  H         5.0086636995        3.2233122322        5.4498475169
       8
 i =    19509, time =    19509.000, E =       -54.0642756026
  N         6.2074694565        5.8204380529        6.0733213494
  O         7.4709364201        5.8471125845        5.9837238060
  N         5.1589058985        6.2613773162        5.6480891168
  O         3.9006221213        6.2503299538        5.5620976807
  H         5.6157873337        3.5144298264        3.5198669479
  H         5.6821198409        3.8426497509        2.9339155618
  H         4.8338170955        3.0200797777        6.1056449422
  H         4.9926899054        3.2441229791        5.4394436150
       8
 i =    19510, time =    19510.000, E =       -54.0659638021
  N         6.2096073326        5.8175653560        6.0729113775
  O         7.4694994101        5.8493420699        5.9819464687
  N         5.1532139479        6.2612265139        5.6455427012
  O         3.9043758240        6.2490422995        5.5648854365
  H         5.6331300506        3.5154592801        3.5423960836
  H         5.6856918058        3.8507215162        2.9451728776
  H         4.8419713613        3.0146178048        6.1108566712
  H         4.9759563299        3.2682029482        5.4244230875
       8
 i =    19511, time =    19511.000, E =       -54.0675005769
  N         6.2120647783        5.8146780010        6.0722368385
  O         7.4668023930        5.8516833739        5.9801653316
  N         5.1472765734        6.2611344581        5.6427391711
  O         3.9092626369        6.2475191252        5.5680394888
  H         5.6494994606        3.5067181139        3.5834461564
  H         5.6910749719        3.8694232402        2.9394597407
  H         4.8514082912        3.0109793855        6.1111523006
  H         4.9575703274        3.2911367411        5.4141790246
       8
 i =    19512, time =    19512.000, E =       -54.0659032931
  N         6.2142766090        5.8119599342        6.0713105537
  O         7.4631079853        5.8540374303        5.9784405525
  N         5.1420796361        6.2610814129        5.6398862680
  O         3.9146981539        6.2458093451        5.5713947324
  H         5.6657097236        3.5004589715        3.6201119874
  H         5.6962387675        3.8859725310        2.9380568332
  H         4.8621138524        3.0114554503        6.1017584710
  H         4.9380711439        3.3096324487        5.4137936761
       8
 i =    19513, time =    19513.000, E =       -54.0658316760
  N         6.2159578816        5.8092627288        6.0700752668
  O         7.4583514343        5.8565684266        5.9766353975
  N         5.1379819372        6.2610587006        5.6368557824
  O         3.9206362771        6.2437787661        5.5751514907
  H         5.6831769602        3.5037948741        3.6414868983
  H         5.7009757213        3.8938696587        2.9540927370
  H         4.8740824628        3.0157040831        6.0837672236
  H         4.9169813634        3.3251310154        5.4214539010
       8
 i =    19514, time =    19514.000, E =       -54.0676732550
  N         6.2166772364        5.8066877012        6.0685927457
  O         7.4528921466        5.8592002549        5.9747879393
  N         5.1357531689        6.2610790565        5.6337859636
  O         3.9264669149        6.2414741472        5.5791656484
  H         5.7009965016        3.5178023834        3.6446389137
  H         5.7053673800        3.8916318915        2.9889511232
  H         4.8859770848        3.0204462548        6.0651626939
  H         4.8959437258        3.3400802366        5.4296666690
       8
 i =    19515, time =    19515.000, E =       -54.0674750321
  N         6.2161778688        5.8042075575        6.0668857978
  O         7.4469066164        5.8619568797        5.9728662253
  N         5.1358225086        6.2611648182        5.6306688721
  O         3.9318704465        6.2388662832        5.5834471869
  H         5.7189367958        3.5370487602        3.6390839375
  H         5.7098723657        3.8847685058        3.0329949792
  H         4.8976814778        3.0216340254        6.0539880051
  H         4.8748995613        3.3585468383        5.4306223484
       8
 i =    19516, time =    19516.000, E =       -54.0659307623
  N         6.2143226507        5.8018075516        6.0649899486
  O         7.4405999676        5.8648332599        5.9708617948
  N         5.1384158832        6.2613426457        5.6275048804
  O         3.9365780560        6.2359536973        5.5879737789
  H         5.7371836407        3.5497282769        3.6451836044
  H         5.7143960092        3.8850809905        3.0655226893
  H         4.9096069331        3.0184623225        6.0512008513
  H         4.8533099830        3.3812583587        5.4236548952
       8
 i =    19517, time =    19517.000, E =       -54.0688346955
  N         6.2110869963        5.7994344011        6.0629087220
  O         7.4340525658        5.8678560194        5.9687478033
  N         5.1435423404        6.2616430873        5.6242351384
  O         3.9405203246        6.2327027724        5.5927891391
  H         5.7568330351        3.5479018462        3.6769208771
  H         5.7182110115        3.9007134865        3.0729676759
  H         4.9217214756        3.0146509144        6.0497233396
  H         4.8310086814        3.4047692922        5.4158151623
       8
 i =    19518, time =    19518.000, E =       -54.0693886979
  N         6.2067322210        5.7971301992        6.0607298297
  O         7.4275757484        5.8709136609        5.9665977503
  N         5.1507289813        6.2620862311        5.6209247077
  O         3.9436042948        6.2292269677        5.5977350707
  H         5.7769509667        3.5398438171        3.7192760640
  H         5.7215444069        3.9230302502        3.0693821798
  H         4.9326444187        3.0148737486        6.0421827592
  H         4.8097156748        3.4238822895        5.4146569416
       8
 i =    19519, time =    19519.000, E =       -54.0680778794
  N         6.2015865166        5.7948539427        6.0584828772
  O         7.4212348153        5.8739754419        5.9644323292
  N         5.1593863010        6.2627061040        5.6175225672
  O         3.9459922293        6.2255537805        5.6027977070
  H         5.7960000020        3.5374463327        3.7522909090
  H         5.7259137599        3.9402357539        3.0750411271
  H         4.9415369868        3.0209837977        6.0261870859
  H         4.7903385974        3.4368221946        5.4224017529
       8
 i =    19520, time =    19520.000, E =       -54.0688671394
  N         6.1958842923        5.7924519631        6.0561172451
  O         7.4148003093        5.8771283821        5.9621914247
  N         5.1691190069        6.2635819227        5.6138103914
  O         3.9480127561        6.2215613090        5.6081745371
  H         5.8136532782        3.5464861813        3.7677768362
  H         5.7327094821        3.9473239730        3.0999885858
  H         4.9490501128        3.0314377045        6.0042451013
  H         4.7717544404        3.4459937484        5.4361717272
       8
 i =    19521, time =    19521.000, E =       -54.0699170173
  N         6.1904827560        5.7899664664        6.0538240912
  O         7.4086305038        5.8801587390        5.9600299865
  N         5.1785212745        6.2647429532        5.6098805153
  O         3.9498257908        6.2174964121        5.6135649844
  H         5.8290439478        3.5656965931        3.7664484645
  H         5.7417597960        3.9448665002        3.1414496419
  H         4.9567175813        3.0406821091        5.9846796125
  H         4.7528290322        3.4559938852        5.4482364919
       8
 i =    19522, time =    19522.000, E =       -54.0675995049
  N         6.1863048461        5.7874783412        6.0518451957
  O         7.4031740119        5.8828108226        5.9581340738
  N         5.1860770045        6.2661817436        5.6059096112
  O         3.9515509823        6.2136867024        5.6185644190
  H         5.8429301653        3.5855159508        3.7620328991
  H         5.7508677942        3.9413339727        3.1828098621
  H         4.9662284573        3.0438706650        5.9740809535
  H         4.7324549066        3.4704153601        5.4527338802
       8
 i =    19523, time =    19523.000, E =       -54.0659866642
  N         6.1834638720        5.7847241775        6.0501125265
  O         7.3980745559        5.8852415890        5.9563942828
  N         5.1916652357        6.2680686624        5.6015319804
  O         3.9534855307        6.2098929655        5.6235046422
  H         5.8595247613        3.5952213468        3.7739911727
  H         5.7576503547        3.9486697512        3.2072281354
  H         4.9779173002        3.0426462680        5.9694605877
  H         4.7093971031        3.4889875992        5.4523398703
       8
 i =    19524, time =    19524.000, E =       -54.0673115520
  N         6.1821246596        5.7815000683        6.0486056666
  O         7.3931783118        5.8875331788        5.9547528176
  N         5.1950158563        6.2705606065        5.5964719666
  O         3.9558306643        6.2059599105        5.6285926152
  H         5.8808918298        3.5919004729        3.8081498895
  H         5.7612235192        3.9706864281        3.2106676565
  H         4.9893612801        3.0423632079        5.9640610709
  H         4.6855009399        3.5072732826        5.4536418727
       8
 i =    19525, time =    19525.000, E =       -54.0660006161
  N         6.1824194033        5.7779631739        6.0474286488
  O         7.3888884328        5.8895395596        5.9533136493
  N         5.1956947060        6.2735340334        5.5910045403
  O         3.9584853298        6.2021264554        5.6335174614
  H         5.9026425159        3.5867007559        3.8451329630
  H         5.7645291411        3.9952634679        3.2104801619
  H         4.9967827763        3.0477234166        5.9531762506
  H         4.6652823052        3.5196005509        5.4615556124
       8
 i =    19526, time =    19526.000, E =       -54.0654475365
  N         6.1841166790        5.7741478442        6.0465428201
  O         7.3853441753        5.8912717311        5.9520664419
  N         5.1938299779        6.2769397578        5.5851810945
  O         3.9613964535        6.1983932552        5.6382745368
  H         5.9213467889        3.5898768401        3.8691605955
  H         5.7709931027        4.0122135362        3.2225998498
  H         4.9993519635        3.0594526032        5.9364250046
  H         4.6495876928        3.5252600522        5.4764185773
       8
 i =    19527, time =    19527.000, E =       -54.0675082540
  N         6.1867337362        5.7702437244        6.0458962048
  O         7.3827933604        5.8927107009        5.9510208486
  N         5.1898899996        6.2805826010        5.5792646932
  O         3.9643514752        6.1948561033        5.6427377101
  H         5.9352962169        3.6044901681        3.8749467481
  H         5.7816985148        4.0179410395        3.2513063286
  H         4.9993168963        3.0736498139        5.9181603000
  H         4.6364662784        3.5276372035        5.4939710068
       8
 i =    19528, time =    19528.000, E =       -54.0684636266
  N         6.1898101572        5.7662525005        6.0453805917
  O         7.3813110432        5.8939348933        5.9501151344
  N         5.1843658008        6.2844384933        5.5732192581
  O         3.9672330740        6.1914040609        5.6470410212
  H         5.9462771399        3.6269720553        3.8687200054
  H         5.7956517169        4.0165243104        3.2911219014
  H         5.0011875975        3.0848312877        5.9034857670
  H         4.6209130949        3.5326169722        5.5091961198
       8
 i =    19529, time =    19529.000, E =       -54.0664833904
  N         6.1928475632        5.7622438383        6.0449034721
  O         7.3810132828        5.8949970633        5.9493054467
  N         5.1778755450        6.2884267855        5.5671083797
  O         3.9698193120        6.1879814888        5.6512421408
  H         5.9586019136        3.6465342325        3.8667202425
  H         5.8088865107        4.0188744301        3.3259225784
  H         5.0080168186        3.0896864999        5.8950629261
  H         4.5996104977        3.5436303656        5.5195540347
       8
 i =    19530, time =    19530.000, E =       -54.0676280931
  N         6.1953617894        5.7583590569        6.0443904268
  O         7.3819700584        5.8959256152        5.9485661655
  N         5.1711861595        6.2924020840        5.5611048444
  O         3.9718053028        6.1845953207        5.6553151272
  H         5.9767280297        3.6515949700        3.8852856394
  H         5.8166833091        4.0362631761        3.3388666716
  H         5.0175614063        3.0909189960        5.8903399640
  H         4.5749032253        3.5577945233        5.5276175505
       8
 i =    19531, time =    19531.000, E =       -54.0681226457
  N         6.1971486449        5.7545041750        6.0437460390
  O         7.3842285912        5.8967937607        5.9478349143
  N         5.1646273726        6.2964681465        5.5550145047
  O         3.9730032970        6.1810534993        5.6594692301
  H         5.9998966910        3.6464867780        3.9190112486
  H         5.8209545460        4.0653734640        3.3367548703
  H         5.0249328602        3.0943680413        5.8844448633
  H         4.5509782932        3.5699997385        5.5384110282
       8
 i =    19532, time =    19532.000, E =       -54.0656544724
  N         6.1980522695        5.7507141834        6.0428898895
  O         7.3877613751        5.8976277009        5.9470828955
  N         5.1586657530        6.3006097262        5.5488265807
  O         3.9731606341        6.1772742145        5.6637777777
  H         6.0226832889        3.6446451683        3.9493468077
  H         5.8274552707        4.0931116900        3.3385618834
  H         5.0260637138        3.1041277535        5.8744991950
  H         4.5317048262        3.5763779038        5.5548766520
       8
 i =    19533, time =    19533.000, E =       -54.0655205409
  N         6.1980687579        5.7469815804        6.0417198108
  O         7.3925322807        5.8984472615        5.9462805145
  N         5.1535758834        6.3048695094        5.5424372142
  O         3.9720580428        6.1731262620        5.6683721087
  H         6.0417442097        3.6551025717        3.9649334482
  H         5.8403799357        4.1112085797        3.3565725996
  H         5.0205072848        3.1206184660        5.8604524281
  H         4.5169892412        3.5769586208        5.5772857318
       8
 i =    19534, time =    19534.000, E =       -54.0675536794
  N         6.1973582794        5.7438488822        6.0403077517
  O         7.3977089207        5.8991366757        5.9455264656
  N         5.1501748926        6.3086605702        5.5366778081
  O         3.9697680208        6.1691060712        5.6726984371
  H         6.0543825221        3.6775342050        3.9629321162
  H         5.8586557875        4.1165629024        3.3895687772
  H         5.0131856087        3.1377031179        5.8468699500
  H         4.5042695288        3.5758148175        5.6000903120
       8
 i =    19535, time =    19535.000, E =       -54.0666961480
  N         6.1961603512        5.7412379569        6.0385260762
  O         7.4032440033        5.8997043821        5.9447930228
  N         5.1482506131        6.3121007923        5.5313159750
  O         3.9662804992        6.1650290922        5.6769598991
  H         6.0646810046        3.7054744630        3.9534304272
  H         5.8798538827        4.1170248076        3.4290151915
  H         5.0098719153        3.1508803011        5.8361411224
  H         4.4866790547        3.5782616318        5.6213776794
       8
 i =    19536, time =    19536.000, E =       -54.0645020573
  N         6.1947059335        5.7391225211        6.0362088070
  O         7.4091226658        5.9001383362        5.9440595119
  N         5.1475772696        6.3152617469        5.5261723169
  O         3.9615751408        6.1607190207        5.6813362357
  H         6.0799823056        3.7252719732        3.9552222905
  H         5.8983180802        4.1276858042        3.4575776842
  H         5.0128854449        3.1589823050        5.8284241371
  H         4.4607560139        3.5863042982        5.6415913329
       8
 i =    19537, time =    19537.000, E =       -54.0669828162
  N         6.1934026207        5.7377533685        6.0334546433
  O         7.4146258785        5.9003638455        5.9433973618
  N         5.1479406350        6.3178041388        5.5217250535
  O         3.9562550495        6.1565325580        5.6854558132
  H         6.1033872382        3.7261735249        3.9793526325
  H         5.9085081490        4.1570864287        3.4620427981
  H         5.0176460893        3.1651265273        5.8223042637
  H         4.4327728299        3.5957637892        5.6612256856
       8
 i =    19538, time =    19538.000, E =       -54.0659610004
  N         6.1924940313        5.7371786727        6.0301810929
  O         7.4195784991        5.9003495582        5.9428119492
  N         5.1489949050        6.3196665700        5.5180092806
  O         3.9505765624        6.1524646589        5.6893136339
  H         6.1296402829        3.7203910015        4.0108767049
  H         5.9160721290        4.1933912285        3.4578554270
  H         5.0176907915        3.1743860069        5.8156553198
  H         4.4090111443        3.6019202161        5.6824682313
       8
 i =    19539, time =    19539.000, E =       -54.0635223797
  N         6.1921702466        5.7374497283        6.0262808047
  O         7.4238797865        5.9000643140        5.9423013332
  N         5.1504126003        6.3207869329        5.5150487892
  O         3.9447464547        6.1484886953        5.6929231849
  H         6.1524648843        3.7227326134        4.0328415827
  H         5.9278981454        4.2223777964        3.4626804039
  H         5.0096393381        3.1892889762        5.8077015926
  H         4.3924847817        3.6026882995        5.7062403379
       8
 i =    19540, time =    19540.000, E =       -54.0644107002
  N         6.1925868837        5.7386647848        6.0214533741
  O         7.4276307853        5.8994565555        5.9418391852
  N         5.1519559330        6.3211157587        5.5127716375
  O         3.9386944429        6.1444116571        5.6964451573
  H         6.1701994190        3.7403319772        4.0389691727
  H         5.9478587554        4.2389620499        3.4846620703
  H         4.9943732502        3.2096793080        5.7984766033
  H         4.3807798880        3.5993197407        5.7334497423
       8
 i =    19541, time =    19541.000, E =       -54.0658418543
  N         6.1938470280        5.7408461855        6.0158523271
  O         7.4305577243        5.8985239155        5.9414427740
  N         5.1532577261        6.3205246715        5.5113768819
  O         3.9329399068        6.1404550407        5.6996755036
  H         6.1829922854        3.7709083538        4.0312019246
  H         5.9743810311        4.2441452889        3.5208244157
  H         4.9786073733        3.2306687620        5.7893321739
  H         4.3682409552        3.5960789631        5.7620458978
       8
 i =    19542, time =    19542.000, E =       -54.0632615084
  N         6.1959656653        5.7439982278        6.0095254809
  O         7.4325893125        5.8972669043        5.9411042832
  N         5.1540601863        6.3189487484        5.5109411748
  O         3.9277594218        6.1366967725        5.7025435407
  H         6.1960944008        3.8024667923        4.0226848108
  H         6.0019449895        4.2496872009        3.5577745332
  H         4.9691064348        3.2480628023        5.7807160707
  H         4.3483522662        3.5970408609        5.7914224748
       8
 i =    19543, time =    19543.000, E =       -54.0637104766
  N         6.1987509473        5.7479236026        6.0028386980
  O         7.4336599816        5.8957649595        5.9408202494
  N         5.1541743430        6.3164600372        5.5114967983
  O         3.9235698550        6.1333492616        5.7048850421
  H         6.2163829496        3.8161187851        4.0318952919
  H         6.0215891649        4.2725756339        3.5756053004
  H         4.9662692682        3.2612495491        5.7727329150
  H         4.3223260662        3.6019508477        5.8203466365
       8
 i =    19544, time =    19544.000, E =       -54.0662308806
  N         6.2022732688        5.7528914424        5.9952994518
  O         7.4339376390        5.8939200699        5.9405403392
  N         5.1535463898        6.3128685111        5.5130865837
  O         3.9201312465        6.1301442802        5.7068823331
  H         6.2454269503        3.8127955523        4.0592178598
  H         6.0349299203        4.3148032150        3.5762153252
  H         4.9630418536        3.2752284468        5.7648343972
  H         4.2950288119        3.6074308367        5.8509752872
       8
 i =    19545, time =    19545.000, E =       -54.0644455977
  N         6.2061792305        5.7586633673        5.9872411055
  O         7.4335311391        5.8918312679        5.9402407461
  N         5.1522086752        6.3083301926        5.5156441342
  O         3.9176319890        6.1271940612        5.7084593065
  H         6.2745161383        3.8103449143        4.0861699693
  H         6.0489881314        4.3570333446        3.5771898632
  H         4.9524723293        3.2931617713        5.7581095699
  H         4.2747259947        3.6097729734        5.8812145379
       8
 i =    19546, time =    19546.000, E =       -54.0643595421
  N         6.2101041560        5.7650443122        5.9788838133
  O         7.4326361034        5.8895812324        5.9398879017
  N         5.1502879271        6.3029977152        5.5190651870
  O         3.9160948483        6.1245270861        5.7096112523
  H         6.2977269719        3.8218310123        4.1003927990
  H         6.0687909806        4.3854505090        3.5905570120
  H         4.9326094538        3.3156357021        5.7533074948
  H         4.2641101474        3.6081059258        5.9096816721
       8
 i =    19547, time =    19547.000, E =       -54.0673421445
  N         6.2136189842        5.7717502831        5.9705395151
  O         7.4315075858        5.8872815758        5.9394524685
  N         5.1480061122        6.2971181662        5.5231608605
  O         3.9154659164        6.1221780647        5.7103513269
  H         6.3135774065        3.8494206986        4.0998044295
  H         6.0946282124        4.3968144633        3.6177684197
  H         4.9079329911        3.3400315390        5.7500966744
  H         4.2596189926        3.6044247432        5.9359681920
       8
 i =    19548, time =    19548.000, E =       -54.0679348498
  N         6.2164307808        5.7787020990        5.9622496018
  O         7.4303794448        5.8849675554        5.9388970117
  N         5.1455572809        6.2907770932        5.5278381691
  O         3.9155942899        6.1200875415        5.7107396379
  H         6.3253436711        3.8858984745        4.0914110392
  H         6.1235324418        4.3986372969        3.6519733486
  H         4.8860593837        3.3630565418        5.7466261950
  H         4.2534698622        3.6020125382        5.9620657721
       8
 i =    19549, time =    19549.000, E =       -54.0654113791
  N         6.2184047709        5.7862194930        5.9535913516
  O         7.4294111262        5.8825374536        5.9381526423
  N         5.1430131206        6.2836903767        5.5332822711
  O         3.9163295403        6.1180818142        5.7108486855
  H         6.3405495479        3.9166986654        4.0894290350
  H         6.1505612455        4.4079197404        3.6805324459
  H         4.8714229993        3.3839385617        5.7407401667
  H         4.2394984392        3.6028528080        5.9915506319
       8
 i =    19550, time =    19550.000, E =       -54.0677895564
  N         6.2191818158        5.7938205667        5.9450822677
  O         7.4288509067        5.8801450005        5.9372263359
  N         5.1407426348        6.2763253943        5.5391113536
  O         3.9174508096        6.1162112508        5.7107215075
  H         6.3642477376        3.9252948920        4.1064085346
  H         6.1685744759        4.4392528389        3.6896311985