       8
 i =   130374, time =   130374.000, E =       -54.1433006562
  N         3.1805450671        5.1790184240        5.8893285374
  O         8.9183783206        7.0698139550        5.5894047347
  N         4.3240720908        5.2967513445        5.7819816196
  O         5.5441843018        5.5517953855        5.7155561791
  H         9.7606997291        6.7646797387        5.2063028527
  H         8.1983108164        6.4411012885        5.4756993122
  H         6.9965895433        6.1091282865        5.2529168267
  H         7.1825445744        5.8395965344        5.9210652918
       8
 i =   130375, time =   130375.000, E =       -54.1440869403
  N         3.1889243540        5.1770139764        5.8897445676
  O         8.9125925215        7.0666727795        5.5903706384
  N         4.3234862451        5.3022899807        5.7837374759
  O         5.5412827406        5.5522449824        5.7126876298
  H         9.7715974894        6.7582385972        5.2355045081
  H         8.2122585229        6.4303256371        5.4298793600
  H         6.9881636081        6.1176588379        5.2690355340
  H         7.1945558685        5.8478220308        5.9243110787
       8
 i =   130376, time =   130376.000, E =       -54.1442509327
  N         3.1973011162        5.1747065540        5.8900348904
  O         8.9080591377        7.0638837574        5.5912878980
  N         4.3219433552        5.3081032951        5.7857776395
  O         5.5392109172        5.5525926624        5.7097421323
  H         9.7710629601        6.7532176426        5.2676929840
  H         8.2272286982        6.4155359384        5.3819172647
  H         6.9766836849        6.1245335781        5.2859354006
  H         7.2005420158        5.8567399610        5.9255941557
       8
 i =   130377, time =   130377.000, E =       -54.1433455022
  N         3.2047091953        5.1720856856        5.8902875791
  O         8.9045854553        7.0613621221        5.5921739669
  N         4.3202060735        5.3140806966        5.7879525854
  O         5.5380424383        5.5528656262        5.7068160631
  H         9.7628784980        6.7496455429        5.3009323681
  H         8.2431852030        6.3989627260        5.3337863291
  H         6.9619333908        6.1309075588        5.3001665821
  H         7.2016297705        5.8654137429        5.9273672153
       8
 i =   130378, time =   130378.000, E =       -54.1413389050
  N         3.2108168465        5.1689244613        5.8906079338
  O         8.9013528416        7.0587932121        5.5931293136
  N         4.3188749024        5.3206005768        5.7902936399
  O         5.5377378771        5.5531175893        5.7037643335
  H         9.7542133713        6.7459503339        5.3350214015
  H         8.2622648721        6.3829694856        5.2843572561
  H         6.9429833444        6.1382933133        5.3102907113
  H         7.1992042664        5.8739837999        5.9313567496
       8
 i =   130379, time =   130379.000, E =       -54.1392965864
  N         3.2148153693        5.1652419210        5.8910649191
  O         8.8978104948        7.0560900709        5.5941265939
  N         4.3185293464        5.3274944771        5.7926568413
  O         5.5383279908        5.5533796072        5.7006970367
  H         9.7535880873        6.7405826332        5.3673030700
  H         8.2848150746        6.3714615976        5.2371746243
  H         6.9214987032        6.1468107130        5.3159505985
  H         7.1941164232        5.8828440398        5.9367340423
       8
 i =   130380, time =   130380.000, E =       -54.1380035156
  N         3.2164003514        5.1608911168        5.8916723452
  O         8.8936990105        7.0529716635        5.5950343247
  N         4.3194021997        5.3346453437        5.7949595749
  O         5.5398032382        5.5535819608        5.6975873451
  H         9.7644418154        6.7332372402        5.3979877462
  H         8.3106893642        6.3665636051        5.1938730222
  H         6.8998423898        6.1560114934        5.3189626419
  H         7.1866932027        5.8933397553        5.9408419900
       8
 i =   130381, time =   130381.000, E =       -54.1370600576
  N         3.2155645960        5.1562659788        5.8924477506
  O         8.8895710641        7.0495525621        5.5956922489
  N         4.3212404615        5.3416256481        5.7970886221
  O         5.5419678751        5.5538359088        5.6946741088
  H         9.7818099926        6.7265905599        5.4271919037
  H         8.3369380537        6.3689134886        5.1577871749
  H         6.8819914010        6.1651726155        5.3210500258
  H         7.1779612506        5.9062016334        5.9410670562
       8
 i =   130382, time =   130382.000, E =       -54.1360629073
  N         3.2128668980        5.1516523157        5.8933383094
  O         8.8862274908        7.0458893675        5.5960075291
  N         4.3234401229        5.3480077438        5.7989806223
  O         5.5445634723        5.5541388907        5.6920720376
  H         9.7966631772        6.7238876555        5.4558297539
  H         8.3604225397        6.3764959753        5.1293874498
  H         6.8703046808        6.1743694467        5.3223987976
  H         7.1697220830        5.9212001952        5.9370987189
       8
 i =   130383, time =   130383.000, E =       -54.1351560676
  N         3.2086598756        5.1466798704        5.8944063984
  O         8.8838891537        7.0416375309        5.5960692103
  N         4.3255812856        5.3543018238        5.8008765974
  O         5.5477034695        5.5545293350        5.6894947370
  H         9.8039347256        6.7269426488        5.4880940731
  H         8.3813262894        6.3871494368        5.1036304229
  H         6.8639824013        6.1857407143        5.3215976607
  H         7.1632283534        5.9394804568        5.9300989498
       8
 i =   130384, time =   130384.000, E =       -54.1347981752
  N         3.2037412975        5.1416439325        5.8955838088
  O         8.8829437011        7.0370861908        5.5960236708
  N         4.3269081878        5.3601121704        5.8027599724
  O         5.5511595008        5.5550143049        5.6870160213
  H         9.8010445332        6.7361424356        5.5230392510
  H         8.3968502434        6.3974309593        5.0789663016
  H         6.8628638894        6.2003123498        5.3162428893
  H         7.1609206664        5.9597603497        5.9226162672
       8
 i =   130385, time =   130385.000, E =       -54.1349389465
  N         3.1988722553        5.1368065266        5.8968075167
  O         8.8832424272        7.0325444510        5.5960276981
  N         4.3268189476        5.3651229464        5.8046252882
  O         5.5547545367        5.5556219822        5.6846833833
  H         9.7916943067        6.7495685948        5.5590979388
  H         8.4059415868        6.4052528221        5.0543287143
  H         6.8662076551        6.2183371311        5.3052130782
  H         7.1638984355        5.9811867216        5.9160779791
       8
 i =   130386, time =   130386.000, E =       -54.1351885987
  N         3.1942639987        5.1319941805        5.8981288241
  O         8.8842381848        7.0278839400        5.5961372616
  N         4.3249026917        5.3694782729        5.8066153492
  O         5.5586527779        5.5564584446        5.6823408992
  H         9.7834787603        6.7649387876        5.5976885233
  H         8.4103640569        6.4113758948        5.0283295595
  H         6.8738424105        6.2403668411        5.2887803081
  H         7.1718011390        6.0055465823        5.9090276909
       8
 i =   130387, time =   130387.000, E =       -54.1358816476
  N         3.1903326708        5.1273662207        5.8995211624
  O         8.8852458425        7.0232271257        5.5962818974
  N         4.3209740880        5.3729753557        5.8087183737
  O         5.5627360937        5.5576066971        5.6800016482
  H         9.7852059181        6.7788420844        5.6378855838
  H         8.4129100494        6.4175551490        5.0031194470
  H         6.8854329575        6.2647239182        5.2696525976
  H         7.1829360597        6.0335097128        5.8989403320
       8
 i =   130388, time =   130388.000, E =       -54.1370864012
  N         3.1875950443        5.1234283427        5.9008475964
  O         8.8858982125        7.0189986934        5.5963406804
  N         4.3155868714        5.3752153730        5.8107132853
  O         5.5664607449        5.5590311892        5.6778766916
  H         9.7984361307        6.7885825886        5.6753589179
  H         8.4167822974        6.4249758736        4.9833600968
  H         6.8987608557        6.2874688589        5.2520170957
  H         7.1944651108        6.0627349637        5.8849076489
       8
 i =   130389, time =   130389.000, E =       -54.1377876289
  N         3.1859794720        5.1202410006        5.9020930218
  O         8.8865539265        7.0152122481        5.5963234611
  N         4.3093520901        5.3762170558        5.8125236293
  O         5.5695579746        5.5607393083        5.6759907689
  H         9.8154744718        6.7950236186        5.7082633173
  H         8.4242432910        6.4337448513        4.9701764944
  H         6.9114892467        6.3073422934        5.2365751700
  H         7.2052262152        6.0920097585        5.8676723276
       8
 i =   130390, time =   130390.000, E =       -54.1376844641
  N         3.1850995967        5.1175340406        5.9033654794
  O         8.8879011787        7.0116168280        5.5963934981
  N         4.3024769893        5.3761418379        5.8142217023
  O         5.5720235170        5.5628714431        5.6742058237
  H         9.8276163461        6.8001998598        5.7370327648
  H         8.4365893510        6.4430818282        4.9616436861
  H         6.9218883393        6.3255962177        5.2207773969
  H         7.2158462997        6.1221411209        5.8483186113
       8
 i =   130391, time =   130391.000, E =       -54.1374568771
  N         3.1845808646        5.1152611537        5.9046835761
  O         8.8904423116        7.0083780324        5.5968003718
  N         4.2957472598        5.3750955570        5.8157270676
  O         5.5736306020        5.5654356840        5.6725355829
  H         9.8282294868        6.8048868965        5.7596213649
  H         8.4531781732        6.4503780985        4.9554254728
  H         6.9272214852        6.3420043441        5.2028894687
  H         7.2262561826        6.1515810695        5.8296835044
       8
 i =   130392, time =   130392.000, E =       -54.1374680825
  N         3.1839206243        5.1131159787        5.9062162197
  O         8.8945900345        7.0053959181        5.5978139543
  N         4.2892583837        5.3730674908        5.8171160910
  O         5.5743719700        5.5687479452        5.6708055144
  H         9.8170121179        6.8091402943        5.7773328672
  H         8.4744909736        6.4535522357        4.9480080443
  H         6.9259602772        6.3574598777        5.1807736174
  H         7.2368484664        6.1825156249        5.8111104007
       8
 i =   130393, time =   130393.000, E =       -54.1374081874
  N         3.1826883904        5.1111336065        5.9079140111
  O         8.8997633497        7.0030655361        5.5994441274
  N         4.2841199169        5.3702725479        5.8182395526
  O         5.5741092046        5.5727014983        5.6690893341
  H         9.8014590958        6.8110833960        5.7898671007
  H         8.4982499133        6.4506044231        4.9377750876
  H         6.9172902777        6.3694957174        5.1578794102
  H         7.2453687976        6.2131849134        5.7925597681
       8
 i =   130394, time =   130394.000, E =       -54.1377816019
  N         3.1806732924        5.1093947763        5.9096554983
  O         8.9047952414        7.0016522568        5.6013573408
  N         4.2812030879        5.3670721108        5.8189741713
  O         5.5728884145        5.5770067120        5.6674891554
  H         9.7938534273        6.8085564009        5.7986790790
  H         8.5222262796        6.4424166298        4.9258822301
  H         6.9024796765        6.3757040123        5.1393617000
  H         7.2493843817        6.2414488607        5.7734371437
       8
 i =   130395, time =   130395.000, E =       -54.1395400154
  N         3.1776864562        5.1077566726        5.9115447273
  O         8.9094541552        7.0009709724        5.6033734351
  N         4.2804402862        5.3633589699        5.8193655704
  O         5.5706716054        5.5819171920        5.6658770971
  H         9.8006023521        6.8003810560        5.8064596075
  H         8.5484550658        6.4308633786        4.9138742685
  H         6.8813846055        6.3759147825        5.1259114962
  H         7.2483876515        6.2692179421        5.7515547156
       8
 i =   130396, time =   130396.000, E =       -54.1418192373
  N         3.1739177750        5.1062501905        5.9135494179
  O         8.9137836297        7.0007910698        5.6052837526
  N         4.2816767172        5.3591764941        5.8194303400
  O         5.5674575380        5.5873547287        5.6642575638
  H         9.8192258462        6.7875249102        5.8133244055
  H         8.5774441088        6.4187507555        4.9046195799
  H         6.8543991225        6.3704302389        5.1171588208
  H         7.2429426964        6.2962614775        5.7278088071
       8
 i =   130397, time =   130397.000, E =       -54.1431436850
  N         3.1701444411        5.1050745550        5.9154329524
  O         8.9179444264        7.0008140565        5.6068752978
  N         4.2842650327        5.3549265676        5.8192216462
  O         5.5635748898        5.5926767521        5.6628074082
  H         9.8380554782        6.7740321658        5.8173166901
  H         8.6062159931        6.4092707811        4.9007323060
  H         6.8245417910        6.3610205417        5.1116338898
  H         7.2354344832        6.3200433801        5.7063301541
       8
 i =   130398, time =   130398.000, E =       -54.1437029182
  N         3.1665040322        5.1041827052        5.9173255335
  O         8.9229258383        7.0008078232        5.6083719453
  N         4.2877662411        5.3501767540        5.8187966426
  O         5.5586929473        5.5982588248        5.6614215932
  H         9.8498634106        6.7614566118        5.8177852020
  H         8.6363787355        6.4021375994        4.9018038860
  H         6.7900253457        6.3481710560        5.1068083554
  H         7.2269398676        6.3432266303        5.6861322513
       8
 i =   130399, time =   130399.000, E =       -54.1436981616
  N         3.1634642311        5.1036401220        5.9191955869
  O         8.9291323318        7.0006736179        5.6098762868
  N         4.2915166691        5.3448198451        5.8182263881
  O         5.5527980400        5.6040451367        5.6601242623
  H         9.8504896507        6.7515708440        5.8148083057
  H         8.6663434401        6.3967440012        4.9064662008
  H         6.7527008656        6.3329278144        5.1023353184
  H         7.2180319717        6.3665728566        5.6663399423
       8
 i =   130400, time =   130400.000, E =       -54.1428527720
  N         3.1614089288        5.1034930682        5.9210362648
  O         8.9366821248        7.0004381941        5.6114727229
  N         4.2949081766        5.3386815878        5.8175770080
  O         5.5458424251        5.6100701265        5.6589216029
  H         9.8418676357        6.7446788348        5.8099337621
  H         8.6943174937        6.3916702686        4.9124770077
  H         6.7151675994        6.3163049698        5.0991678661
  H         7.2080248418        6.3909772961        5.6444662773
       8
 i =   130401, time =   130401.000, E =       -54.1412519201
  N         3.1606804089        5.1037662918        5.9227978999
  O         8.9451321446        7.0002207636        5.6131203402
  N         4.2973183518        5.3317680281        5.8169272082
  O         5.5379879142        5.6162234224        5.6578520792
  H         9.8316964726        6.7398397919        5.8061351711
  H         8.7176668235        6.3856369763        4.9174401750
  H         6.6813001195        6.3000691858        5.0982323258
  H         7.1962600268        6.4163510384        5.6186690368
       8
 i =   130402, time =   130402.000, E =       -54.1404134419
  N         3.1614236631        5.1043998830        5.9243354590
  O         8.9532641663        7.0001502361        5.6145786687
  N         4.2982065943        5.3246250654        5.8163814302
  O         5.5299554062        5.6219931287        5.6570183579
  H         9.8303600221        6.7355059302        5.8068199624
  H         8.7331743494        6.3786740211        4.9198399749
  H         6.6559847087        6.2870516812        5.0989834491
  H         7.1838478320        6.4407388324        5.5903739362
       8
 i =   130403, time =   130403.000, E =       -54.1414314926
  N         3.1634908046        5.1053092433        5.9256905542
  O         8.9608887435        7.0002096191        5.6157475505
  N         4.2975416721        5.3172185325        5.8159544784
  O         5.5217023136        5.6274443651        5.6564217460
  H         9.8422972045        6.7305457406        5.8134421063
  H         8.7410763321        6.3714683113        4.9203700213
  H         6.6389783965        6.2779669681        5.0992252241
  H         7.1722302754        6.4647997884        5.5603579520
       8
 i =   130404, time =   130404.000, E =       -54.1436105995
  N         3.1667137877        5.1064315810        5.9269877371
  O         8.9686842795        7.0002270986        5.6166449155
  N         4.2954417314        5.3091622023        5.8156152598
  O         5.5126957811        5.6329156486        5.6560420886
  H         9.8647447917        6.7255398178        5.8256748311
  H         8.7426892160        6.3650696370        4.9208978157
  H         6.6279889620        6.2724138469        5.0960218118
  H         7.1632668489        6.4909189677        5.5287390881
       8
 i =   130405, time =   130405.000, E =       -54.1459672490
  N         3.1705661902        5.1075918955        5.9282656377
  O         8.9770574954        6.9999514804        5.6172831899
  N         4.2923161032        5.3007036222        5.8153399247
  O         5.5030350789        5.6383227698        5.6558997271
  H         9.8885194518        6.7227507761        5.8409400867
  H         8.7392873519        6.3611049036        4.9235629884
  H         6.6217431056        6.2701856788        5.0869237570
  H         7.1594685482        6.5197386417        5.4977457070
       8
 i =   130406, time =   130406.000, E =       -54.1485275314
  N         3.1741329123        5.1085263780        5.9295187719
  O         8.9859317596        6.9992376243        5.6177113444
  N         4.2889771970        5.2925697347        5.8150932144
  O         5.4933585132        5.6433383322        5.6559901243
  H         9.9038120878        6.7240564830        5.8555096934
  H         8.7326577043        6.3605018666        4.9295838703
  H         6.6201720225        6.2711859339        5.0720499082
  H         7.1613202048        6.5496213730        5.4696967260
       8
 i =   130407, time =   130407.000, E =       -54.1516334507
  N         3.1767477963        5.1090597151        5.9308444331
  O         8.9955589835        6.9980919290        5.6180365929
  N         4.2860702760        5.2848599606        5.8148087239
  O         5.4836294273        5.6480717971        5.6562682531
  H         9.9076078646        6.7295779676        5.8678680562
  H         8.7239701360        6.3626809950        4.9390878085
  H         6.6240678822        6.2757063706        5.0527229708
  H         7.1668480981        6.5799633690        5.4432222926
       8
 i =   130408, time =   130408.000, E =       -54.1549632924
  N         3.1777120798        5.1090127182        5.9322623739
  O         9.0053492082        6.9967417672        5.6183182840
  N         4.2843022614        5.2780643818        5.8144391104
  O         5.4743654326        5.6524028919        5.6566497270
  H         9.9023419264        6.7375601673        5.8773848711
  H         8.7142984815        6.3659382143        4.9505776282
  H         6.6340383892        6.2839141882        5.0319111572
  H         7.1732974899        6.6080737451        5.4181669281
       8
 i =   130409, time =   130409.000, E =       -54.1582085419
  N         3.1767137853        5.1082846847        5.9338219898
  O         9.0148700133        6.9954659626        5.6185707954
  N         4.2839967246        5.2722986235        5.8139465251
  O         5.4656772015        5.6564124836        5.6570501465
  H         9.8949545475        6.7453384840        5.8853641160
  H         8.7039909318        6.3682307113        4.9624419125
  H         6.6494526112        6.2954582874        5.0112524857
  H         7.1792642492        6.6330866815        5.3940771202
       8
 i =   130410, time =   130410.000, E =       -54.1614872821
  N         3.1737906980        5.1068425993        5.9355206388
  O         9.0235469039        6.9945504582        5.6187483238
  N         4.2851364164        5.2676797377        5.8133311597
  O         5.4577417280        5.6601195701        5.6573880980
  H         9.8934403204        6.7499891550        5.8935881186
  H         8.6935029703        6.3678560340        4.9733215634
  H         6.6679582261        6.3089030900        4.9915237888
  H         7.1849042681        6.6550427550        5.3718169223
       8
 i =   130411, time =   130411.000, E =       -54.1652246879
  N         3.1690401673        5.1045785868        5.9374583372
  O         9.0317044801        6.9941029452        5.6188130625
  N         4.2874662372        5.2639098270        5.8125792393
  O         5.4500886097        5.6638171376        5.6576216669
  H         9.9023959864        6.7498841227        5.9036914680
  H         8.6828226537        6.3639194120        4.9836843475
  H         6.6878699001        6.3232589934        4.9710591666
  H         7.1918530118        6.6767194287        5.3511107628
       8
 i =   130412, time =   130412.000, E =       -54.1686622323
  N         3.1631611951        5.1015942496        5.9395222521
  O         9.0391627228        6.9941505929        5.6187721789
  N         4.2902890058        5.2610956009        5.8117793744
  O         5.4430591318        5.6674000651        5.6576892549
  H         9.9200511555        6.7447546076        5.9145099046
  H         8.6735576668        6.3566009358        4.9938998980
  H         6.7059687610        6.3362863008        4.9501985661
  H         7.2008877753        6.6987965421        5.3336697449
       8
 i =   130413, time =   130413.000, E =       -54.1710825181
  N         3.1566565192        5.0978505398        5.9417089656
  O         9.0465610322        6.9945696470        5.6186996611
  N         4.2928891400        5.2590805529        5.8109950324
  O         5.4365222067        5.6709986991        5.6575487524
  H         9.9404544700        6.7356696803        5.9239623189
  H         8.6669487460        6.3464217788        5.0056254339
  H         6.7220011305        6.3478049108        4.9289102093
  H         7.2117473508        6.7224492323        5.3186917031
       8
 i =   130414, time =   130414.000, E =       -54.1725782297
  N         3.1507733020        5.0937486294        5.9437584550
  O         9.0537274935        6.9951471574        5.6186864612
  N         4.2942464820        5.2579236433        5.8103852713
  O         5.4311003298        5.6743269697        5.6571824038
  H         9.9547599930        6.7251829478        5.9287895256
  H         8.6648008230        6.3352877547        5.0191349428
  H         6.7355955519        6.3576247366        4.9107008712
  H         7.2214079148        6.7449491359        5.3058434317
       8
 i =   130415, time =   130415.000, E =       -54.1742164504
  N         3.1456509177        5.0890762873        5.9457534131
  O         9.0614593657        6.9957885125        5.6187742493
  N         4.2938351083        5.2574375852        5.8099816077
  O         5.4264448998        5.6776373228        5.6565452603
  H         9.9599278054        6.7138980135        5.9281226521
  H         8.6675093013        6.3232145426        5.0360678000
  H         6.7490522396        6.3675947261        4.8960229409
  H         7.2283708524        6.7668592262        5.2924513040
       8
 i =   130416, time =   130416.000, E =       -54.1763390598
  N         3.1415672498        5.0837433288        5.9476996268
  O         9.0700530523        6.9964583122        5.6189559184
  N         4.2911848383        5.2575719380        5.8098299303
  O         5.4224530781        5.6810207300        5.6555993098
  H         9.9557286916        6.7020314173        5.9221098348
  H         8.6750541597        6.3101608632        5.0569526395
  H         6.7631069146        6.3784697392        4.8854491345
  H         7.2316725183        6.7883308650        5.2772806652
       8
 i =   130417, time =   130417.000, E =       -54.1782528101
  N         3.1388673292        5.0779412995        5.9495079405
  O         9.0790908514        6.9971726844        5.6191572153
  N         4.2862268400        5.2583302785        5.8099555873
  O         5.4191956311        5.6843464633        5.6543717952
  H         9.9461633262        6.6895792466        5.9127934785
  H         8.6861486697        6.2963318026        5.0804290873
  H         6.7762733225        6.3892249696        4.8788724156
  H         7.2317100542        6.8093221497        5.2612848420
       8
 i =   130418, time =   130418.000, E =       -54.1794752908
  N         3.1375289731        5.0716923295        5.9511738231
  O         9.0882321082        6.9980375256        5.6192638998
  N         4.2791795190        5.2597608386        5.8103346752
  O         5.4165332920        5.6875598602        5.6528845157
  H         9.9382701959        6.6754327782        5.9032870044
  H         8.6988998691        6.2812433479        5.1052069669
  H         6.7865843729        6.3982686902        4.8748115160
  H         7.2302030364        6.8312304072        5.2459285330
       8
 i =   130419, time =   130419.000, E =       -54.1804204881
  N         3.1373310337        5.0652125161        5.9526653600
  O         9.0968421155        6.9991147594        5.6191643868
  N         4.2708271770        5.2618936600        5.8108892869
  O         5.4143448240        5.6904852843        5.6512280965
  H         9.9390517906        6.6590871763        5.8969327301
  H         8.7106891271        6.2650630352        5.1291261928
  H         6.7922833975        6.4040493998        4.8720897337
  H         7.2287222541        6.8543406995        5.2329233349
       8
 i =   130420, time =   130420.000, E =       -54.1813240909
  N         3.1378286199        5.0579588434        5.9541458081
  O         9.1055222172        7.0004462099        5.6188077873
  N         4.2612401595        5.2650187004        5.8115741700
  O         5.4122216052        5.6932811044        5.6493161062
  H         9.9509401281        6.6397565452        5.8946604562
  H         8.7206090834        6.2468106778        5.1532877358
  H         6.7940639097        6.4073406906        4.8704673802
  H         7.2271994727        6.8799070902        5.2211733059
       8
 i =   130421, time =   130421.000, E =       -54.1815487479
  N         3.1384468148        5.0501565664        5.9556192655
  O         9.1141617504        7.0017339180        5.6182460099
  N         4.2516554860        5.2691571788        5.8122555997
  O         5.4100033380        5.6957685925        5.6472719173
  H         9.9700390154        6.6209022825        5.8959023303
  H         8.7271761990        6.2285279905        5.1767496206
  H         6.7935973071        6.4099777767        4.8710441991
  H         7.2244572851        6.9046522114        5.2100169934
       8
 i =   130422, time =   130422.000, E =       -54.1812380930
  N         3.1385987050        5.0417682145        5.9571504549
  O         9.1231032634        7.0026093577        5.6175592771
  N         4.2429596882        5.2744043819        5.8128221442
  O         5.4074672772        5.6978965534        5.6451548848
  H         9.9896583763        6.6063765099        5.8987153427
  H         8.7302090832        6.2124067280        5.2000907740
  H         6.7928347377        6.4142264006        4.8746266695
  H         7.2193780223        6.9259743520        5.1984633775
       8
 i =   130423, time =   130423.000, E =       -54.1814137135
  N         3.1378352135        5.0331816804        5.9587174666
  O         9.1321670190        7.0027235766        5.6168476525
  N         4.2362307135        5.2805313426        5.8131597532
  O         5.4045587470        5.6995478920        5.6431224304
  H        10.0032373126        6.5998437433        5.9011333697
  H         8.7300020124        6.2012912935        5.2228754313
  H         6.7926397987        6.4208161671        4.8806696853
  H         7.2123963178        6.9417490594        5.1871230384
       8
 i =   130424, time =   130424.000, E =       -54.1826127997
  N         3.1359846305        5.0242948341        5.9603650620
  O         9.1415449201        7.0019597572        5.6161324483
  N         4.2316369048        5.2875681347        5.8132331199
  O         5.4011248524        5.7007689961        5.6411858582
  H        10.0088167489        6.6021754234        5.9023096509
  H         8.7270717464        6.1960323628        5.2457779972