       8
 i =    16000, time =    16000.000, E =       -54.0403677894
  N         5.1310187235        6.0854982197        6.6401970244
  O         4.6014218625        5.0242905483        6.8706194036
  N         6.6280324643        6.2006839007        5.4067727118
  O         6.6760713778        6.3481853681        4.2597675590
  H         4.4241847388        6.9333494185        4.2750779563
  H         4.1852928764        7.1901020479        4.8724048858
  H         4.4576622926        4.4323450595        4.9816711499
  H         4.3253626616        4.5330284423        4.2783282666
       8
 i =    16001, time =    16001.000, E =       -54.0409131204
  N         5.1196577181        6.0881044187        6.6279511854
  O         4.6090096661        5.0211943732        6.8718392558
  N         6.6312514152        6.1943781709        5.4113463668
  O         6.6743580866        6.3489068675        4.2586274908
  H         4.4298128334        6.9649310669        4.2669588443
  H         4.1958809471        7.2240660697        4.9380442635
  H         4.4561875675        4.4490943507        5.0217099713
  H         4.3272873295        4.5394752081        4.2904652278
       8
 i =    16002, time =    16002.000, E =       -54.0375744116
  N         5.1079841731        6.0903402962        6.6156197544
  O         4.6170383185        5.0187171170        6.8729358168
  N         6.6344763337        6.1875843190        5.4175473255
  O         6.6721135621        6.3498592927        4.2564213487
  H         4.4330651613        7.0005457040        4.2659345143
  H         4.2133697332        7.2527732957        4.9969934552
  H         4.4535860039        4.4661589599        5.0523130677
  H         4.3316683065        4.5451162800        4.3093953454
       8
 i =    16003, time =    16003.000, E =       -54.0374112936
  N         5.0965044818        6.0921597951        6.6036746436
  O         4.6251897396        5.0169714864        6.8738861198
  N         6.6375448340        6.1806184246        5.4246450786
  O         6.6694128639        6.3509693750        4.2536931168
  H         4.4306235913        7.0426439455        4.2845108594
  H         4.2407263640        7.2706725966        5.0347418208
  H         4.4494864526        4.4827672274        5.0687235829
  H         4.3384966189        4.5493895905        4.3370361886
       8
 i =    16004, time =    16004.000, E =       -54.0394568240
  N         5.0852174358        6.0936099256        6.5920544270
  O         4.6334983392        5.0159429787        6.8747199687
  N         6.6404236015        6.1735141155        5.4321352079
  O         6.6662427609        6.3521881211        4.2509201974
  H         4.4234512904        7.0908081803        4.3234007472
  H         4.2773537996        7.2783479050        5.0508712350
  H         4.4447091279        4.4981334067        5.0755060682
  H         4.3467389394        4.5527870012        4.3683078831
       8
 i =    16005, time =    16005.000, E =       -54.0375716960
  N         5.0741702188        6.0947135220        6.5807624348
  O         4.6419709759        5.0156113713        6.8754680433
  N         6.6430524805        6.1663355894        5.4395132988
  O         6.6625988983        6.3534559335        4.2485559255
  H         4.4151502741        7.1413220243        4.3718694928
  H         4.3197885837        7.2798894398        5.0559447715
  H         4.4407889096        4.5111495966        5.0829092345
  H         4.3547543520        4.5561041840        4.3923308815
       8
 i =    16006, time =    16006.000, E =       -54.0335336923
  N         5.0629722781        6.0955437408        6.5693651149
  O         4.6509608241        5.0159266020        6.8761947864
  N         6.6454630215        6.1588487927        5.4466241172
  O         6.6583124940        6.3547680626        4.2469071918
  H         4.4102022789        7.1906596984        4.4089003855
  H         4.3652528318        7.2815724681        5.0728203489
  H         4.4385685395        4.5215804654        5.0994909643
  H         4.3618386752        4.5599217938        4.4011490775
       8
 i =    16007, time =    16007.000, E =       -54.0348828970
  N         5.0523771080        6.0961281908        6.5585976492
  O         4.6599097122        5.0167841470        6.8768979480
  N         6.6474347062        6.1515599186        5.4526527969
  O         6.6536284125        6.3559994033        4.2463983535
  H         4.4108645662        7.2332946703        4.4152511509
  H         4.4093585290        7.2863759075        5.1172961060
  H         4.4376112545        4.5287692242        5.1208136252
  H         4.3680551180        4.5636698059        4.3970289480
       8
 i =    16008, time =    16008.000, E =       -54.0330860356
  N         5.0421580976        6.0966477999        6.5481210022
  O         4.6690545654        5.0180784297        6.8776446918
  N         6.6489698588        6.1442784088        5.4575092872
  O         6.6484034827        6.3571603897        4.2472402943
  H         4.4166128957        7.2726792950        4.4078128021
  H         4.4542080839        7.2925328998        5.1741078190
  H         4.4366117273        4.5331872226        5.1362564451
  H         4.3746809191        4.5668038178        4.3905578240
       8
 i =    16009, time =    16009.000, E =       -54.0293931007
  N         5.0328325222        6.0972953846        6.5383385175
  O         4.6779775132        5.0196029798        6.8784504082
  N         6.6499607807        6.1373126716        5.4608300499
  O         6.6428589575        6.3581915306        4.2495392063
  H         4.4284368958        7.3079914849        4.4107486572
  H         4.4968255285        7.2989078043        5.2173008527
  H         4.4348702515        4.5347411745        5.1369278166
  H         4.3819721602        4.5687663258        4.3898409000
       8
 i =    16010, time =    16010.000, E =       -54.0296436483
  N         5.0244777128        6.0982495213        6.5292290558
  O         4.6866280057        5.0212049664        6.8793528540
  N         6.6503806703        6.1306694553        5.4625691499
  O         6.6370236890        6.3590880444        4.2533249019
  H         4.4477396010        7.3386316007        4.4347687688
  H         4.5355170389        7.3061001291        5.2360895620
  H         4.4324482038        4.5333915976        5.1226413616
  H         4.3897438605        4.5695129356        4.3950305637
       8
 i =    16011, time =    16011.000, E =       -54.0320509274
  N         5.0168871280        6.0996401058        6.5205152857
  O         4.6952480334        5.0228149584        6.8804071197
  N         6.6502131920        6.1241384260        5.4628035309
  O         6.6307396487        6.3598764395        4.2586902442
  H         4.4754995666        7.3650904082        4.4795126301
  H         4.5707312669        7.3152699086        5.2316038639
  H         4.4298439626        4.5288431825        5.1005220967
  H         4.3976982447        4.5694062008        4.3988367433
       8
 i =    16012, time =    16012.000, E =       -54.0308370488
  N         5.0099998258        6.1015614349        6.5119858841
  O         4.7040299947        5.0244145702        6.8815430205
  N         6.6494539582        6.1176267161        5.4615152764
  O         6.6239534887        6.3606119372        4.2655632728
  H         4.5108512583        7.3884673951        4.5325073263
  H         4.6041213225        7.3270330171        5.2157487098
  H         4.4276597940        4.5205113770        5.0816691514
  H         4.4056245285        4.5692229485        4.3899043593
       8
 i =    16013, time =    16013.000, E =       -54.0289634361
  N         5.0043221128        6.1037920477        6.5044759266
  O         4.7122248217        5.0257640234        6.8827365633
  N         6.6481076148        6.1115903530        5.4591213230
  O         6.6172309729        6.3611948341        4.2732676451
  H         4.5466262005        7.4096932753        4.5627195042
  H         4.6363202649        7.3389695540        5.2156703134
  H         4.4261130838        4.5088050537        5.0726241364
  H         4.4132120972        4.5697135625        4.3651969317
       8
 i =    16014, time =    16014.000, E =       -54.0331418043
  N         4.9997532088        6.1063258717        6.4979299917
  O         4.7199112996        5.0268091228        6.8839316009
  N         6.6461791777        6.1059078511        5.4559398925
  O         6.6105948948        6.3616192426        4.2815369079
  H         4.5796301682        7.4321417396        4.5553729305
  H         4.6695288319        7.3496457292        5.2458731366
  H         4.4248837414        4.4943733868        5.0655153641
  H         4.4215523216        4.5710418500        4.3341302463
       8
 i =    16015, time =    16015.000, E =       -54.0334689444
  N         4.9960174846        6.1093313945        6.4919749946
  O         4.7275401237        5.0275437905        6.8851140603
  N         6.6435635729        6.1001435257        5.4521591242
  O         6.6037265043        6.3619026305        4.2905018698
  H         4.6133218470        7.4563673985        4.5304822424
  H         4.7023562426        7.3619081203        5.2874626399
  H         4.4238040172        4.4775373306        5.0495875834
  H         4.4320032878        4.5729720390        4.3069328539
       8
 i =    16016, time =    16016.000, E =       -54.0312947278
  N         4.9932584931        6.1127199820        6.4868368949
  O         4.7348312822        5.0279021392        6.8861453972
  N         6.6403673233        6.0943798866        5.4483609915
  O         6.5969376184        6.3620583509        4.2994300486
  H         4.6485002662        7.4794898081        4.5138200149
  H         4.7299659316        7.3782527893        5.3141739921
  H         4.4230833686        4.4598490957        5.0210488003
  H         4.4445741405        4.5752067046        4.2904939912
       8
 i =    16017, time =    16017.000, E =       -54.0319897580
  N         4.9914557283        6.1164164512        6.4825577829
  O         4.7417462686        5.0279029408        6.8869224029
  N         6.6366528845        6.0885259545        5.4450722146
  O         6.5903335742        6.3621404531        4.3078044563
  H         4.6849970029        7.5006885895        4.5167435497
  H         4.7507559196        7.3998854694        5.3148999634
  H         4.4228400670        4.4415167711        4.9842737869
  H         4.4593315515        4.5782685138        4.2822360865
       8
 i =    16018, time =    16018.000, E =       -54.0346279479
  N         4.9904990110        6.1203301107        6.4791038300
  O         4.7484205201        5.0276240851        6.8873766335
  N         6.6324135472        6.0823731248        5.4427422172
  O         6.5838574869        6.3622173914        4.3152953126
  H         4.7221775661        7.5210237455        4.5386600262
  H         4.7653211343        7.4272702849        5.2904220793
  H         4.4227461866        4.4209676212        4.9490717043
  H         4.4769971549        4.5840494446        4.2728724484
       8
 i =    16019, time =    16019.000, E =       -54.0343723756
  N         4.9902641808        6.1242798124        6.4764896540
  O         4.7549606809        5.0271846836        6.8874476649
  N         6.6276594198        6.0757649458        5.4417932353
  O         6.5774829956        6.3623521224        4.3215573660
  H         4.7585162356        7.5428896862        4.5668693060
  H         4.7751294042        7.4595193929        5.2534306118
  H         4.4220643715        4.3961281210        4.9240371191
  H         4.4986259151        4.5949450138        4.2543022237
       8
 i =    16020, time =    16020.000, E =       -54.0320685433
  N         4.9906302125        6.1282327007        6.4746407014
  O         4.7617357552        5.0267053757        6.8870805019
  N         6.6221860041        6.0682944213        5.4425335760
  O         6.5709240861        6.3625999642        4.3265592347
  H         4.7943975240        7.5711032918        4.5756002484
  H         4.7817583791        7.4953708733        5.2293031626
  H         4.4206710066        4.3660301000        4.9059171215
  H         4.5255581255        4.6115763013        4.2282954981
       8
 i =    16021, time =    16021.000, E =       -54.0364959438
  N         4.9914758641        6.1316748257        6.4737287553
  O         4.7681929920        5.0263623812        6.8862695370
  N         6.6164850582        6.0605809507        5.4450322053
  O         6.5647714361        6.3629624830        4.3297291216
  H         4.8276571097        7.6053078497        4.5460366547
  H         4.7837941140        7.5296761749        5.2386650935
  H         4.4200104924        4.3367882478        4.8858840879
  H         4.5541308805        4.6291869163        4.2078442056
       8
 i =    16022, time =    16022.000, E =       -54.0377712623
  N         4.9927710535        6.1346029189        6.4736997976
  O         4.7744895075        5.0262460578        6.8849854472
  N         6.6104306658        6.0524944742        5.4492053804
  O         6.5589088878        6.3634407697        4.3312555760
  H         4.8592673928        7.6433379978        4.5006043995
  H         4.7814638218        7.5652619586        5.2594344177
  H         4.4216641535        4.3113997996        4.8561096403
  H         4.5830452372        4.6444821993        4.1998378275
       8
 i =    16023, time =    16023.000, E =       -54.0369308015
  N         4.9944072047        6.1368224986        6.4744824027
  O         4.7802435185        5.0264361537        6.8833321427
  N         6.6043832728        6.0446371025        5.4544498283
  O         6.5537061883        6.3639958669        4.3313672617
  H         4.8854820460        7.6795033583        4.4689509186
  H         4.7777824427        7.6014484130        5.2643922827
  H         4.4260020586        4.2924062409        4.8184675182
  H         4.6092857180        4.6550817355        4.2041814940
       8
 i =    16024, time =    16024.000, E =       -54.0389387344
  N         4.9963984663        6.1384350634        6.4760076313
  O         4.7857035702        5.0270033950        6.8813076866
  N         6.5981022597        6.0368362545        5.4605023257
  O         6.5489465497        6.3646520362        4.3305226273
  H         4.9060738336        7.7137066294        4.4601796050
  H         4.7756194906        7.6389558153        5.2441758099
  H         4.4318315118        4.2763689104        4.7777840522
  H         4.6340949763        4.6631938745        4.2136860824
       8
 i =    16025, time =    16025.000, E =       -54.0426033150
  N         4.9988014313        6.1395220260        6.4782906248
  O         4.7912064963        5.0280382604        6.8788528870
  N         6.5912279242        6.0287936594        5.4672301159
  O         6.5443586304        6.3654240916        4.3291245557
  H         4.9220395496        7.7479036817        4.4719001167
  H         4.7764703992        7.6783121290        5.1999936225
  H         4.4367473263        4.2572526182        4.7399106035
  H         4.6606131597        4.6735751177        4.2198161154
       8
 i =    16026, time =    16026.000, E =       -54.0419360722
  N         5.0014492946        6.1400468150        6.4811576156
  O         4.7965509157        5.0295069448        6.8761207641
  N         6.5840598586        6.0209909677        5.4738704145
  O         6.5401325961        6.3662035332        4.3276688025
  H         4.9350833373        7.7820748208        4.4884409489
  H         4.7788112422        7.7157946586        5.1492832943
  H         4.4387585986        4.2327861116        4.7097435897
  H         4.6889739145        4.6884402907        4.2185776981
       8
 i =    16027, time =    16027.000, E =       -54.0401287208
  N         5.0043432153        6.1400977579        6.4845697451
  O         4.8018693563        5.0313789025        6.8731053477
  N         6.5764704715        6.0133888760        5.4801334335
  O         6.5361676499        6.3669062879        4.3265081978
  H         4.9516875869        7.8196163620        4.4832424434
  H         4.7769706228        7.7493872374        5.1183375974
  H         4.4396259630        4.2058362948        4.6820527350
  H         4.7179029406        4.7046341527        4.2144843976
       8
 i =    16028, time =    16028.000, E =       -54.0434071338
  N         5.0075336660        6.1398250985        6.4885011835
  O         4.8072708997        5.0335717083        6.8697917663
  N         6.5683089405        6.0059342339        5.4857899880
  O         6.5323767378        6.3674420380        4.3259413988
  H         4.9759441525        7.8628017009        4.4455201675
  H         4.7672991776        7.7782765712        5.1175691489
  H         4.4428984058        4.1822694683        4.6499325188
  H         4.7444797709        4.7161014859        4.2138518146
       8
 i =    16029, time =    16029.000, E =       -54.0426758040
  N         5.0109641556        6.1394648344        6.4927485655
  O         4.8125989244        5.0358471377        6.8663199573
  N         6.5597829728        5.9988940839        5.4904194266
  O         6.5288548278        6.3677015434        4.3262390080
  H         5.0009550653        7.9082009800        4.3999109383
  H         4.7562452404        7.8041010400        5.1236477841
  H         4.4507531652        4.1666716775        4.6114526905
  H         4.7658098933        4.7186385571        4.2195400494
       8
 i =    16030, time =    16030.000, E =       -54.0407629158
  N         5.0146848871        6.1392922297        6.4972186717
  O         4.8178494777        5.0379940157        6.8627402826
  N         6.5508616408        5.9922846926        5.4938610377
  O         6.5255724217        6.3676196933        4.3275759300
  H         5.0195666128        7.9529988634        4.3685981865
  H         4.7510144982        7.8299774554        5.1145139483
  H         4.4625718055        4.1577633280        4.5681900210
  H         4.7827010812        4.7135382743        4.2299149840
       8
 i =    16031, time =    16031.000, E =       -54.0421341082
  N         5.0186197650        6.1395856767        6.5016941520
  O         4.8228733198        5.0397338561        6.8592070350
  N         6.5417938402        5.9862794731        5.4959423541
  O         6.5225797314        6.3671645796        4.3300076974
  H         5.0283644185        7.9943660451        4.3603180137
  H         4.7547616691        7.8570364318        5.0826955021
  H         4.4744939509        4.1495018507        4.5257320246
  H         4.7983834780        4.7072528089        4.2402516341
       8
 i =    16032, time =    16032.000, E =       -54.0447679828
  N         5.0226888317        6.1405562424        6.5060165170
  O         4.8275858437        5.0408506302        6.8558296200
  N         6.5327816386        5.9809423885        5.4966467400
  O         6.5198820086        6.3663414989        4.3334865391
  H         5.0289640582        8.0317929839        4.3703472475
  H         4.7657251527        7.8850336817        5.0337669038
  H         4.4823500427        4.1351533628        4.4884463572
  H         4.8166766956        4.7068416132        4.2468110082
       8
 i =    16033, time =    16033.000, E =       -54.0428936797
  N         5.0269680686        6.1423781818        6.5102499803
  O         4.8321295120        5.0412417011        6.8525409802
  N         6.5236434445        5.9760602078        5.4960811348
  O         6.5173589626        6.3651452874        4.3380381738
  H         5.0284729237        8.0693537150        4.3812728371
  H         4.7770881538        7.9122548419        4.9841539167
  H         4.4863032064        4.1142494841        4.4548775805
  H         4.8382231261        4.7124567332        4.2502955929
       8
 i =    16034, time =    16034.000, E =       -54.0431271585
  N         5.0313410642        6.1450974068        6.5142933687
  O         4.8364449586        5.0408325170        6.8493998216
  N         6.5146093144        5.9716293348        5.4944058347
  O         6.5150109404        6.3636354959        4.3434603582
  H         5.0376127097        8.1125013768        4.3681804774
  H         4.7778606645        7.9326474318        4.9595406529
  H         4.4903660640        4.0941079772        4.4228053371
  H         4.8585824674        4.7170873307        4.2535316506
       8
 i =    16035, time =    16035.000, E =       -54.0465519653
  N         5.0356729238        6.1487523465        6.5180390075
  O         4.8404711705        5.0397541228        6.8464045299
  N         6.5058966228        5.9677160551        5.4918328211
  O         6.5128289108        6.3620117330        4.3494274753
  H         5.0570138309        8.1612097617        4.3315649718
  H         4.7671881747        7.9455477472        4.9600981500
  H         4.4982972522        4.0816738422        4.3908883837
  H         4.8734632725        4.7141500086        4.2581751955
       8
 i =    16036, time =    16036.000, E =       -54.0454945559
  N         5.0400046195        6.1532237307        6.5216307736
  O         4.8443235888        5.0379889856        6.8435206944
  N         6.4974186477        5.9640252747        5.4886281123
  O         6.5107477402        6.3602574665        4.3558545883
  H         5.0767621351        8.2083410501        4.2953172782
  H         4.7553360352        7.9588169017        4.9615375649
  H         4.5108430054        4.0775860045        4.3583914486
  H         4.8823657328        4.7021963712        4.2641639130
       8
 i =    16037, time =    16037.000, E =       -54.0443527777
  N         5.0444081387        6.1585104344        6.5252289320
  O         4.8481528980        5.0356400353        6.8406300014
  N         6.4889804882        5.9603094970        5.4850049709
  O         6.5086671875        6.3584661884        4.3626581226
  H         5.0897032464        8.2482715576        4.2755166067
  H         4.7500144537        7.9794041373        4.9469237654
  H         4.5254067627        4.0766914963        4.3251077160
  H         4.8882765167        4.6854603651        4.2704653650
       8
 i =    16038, time =    16038.000, E =       -54.0465454313
  N         5.0485460247        6.1640859430        6.5286949661
  O         4.8517795527        5.0330634842        6.8378520385
  N         6.4811421616        5.9566271063        5.4815399050
  O         6.5066746832        6.3568967164        4.3691141194
  H         5.0929316603        8.2762463751        4.2774091403
  H         4.7539149349        8.0082506370        4.9131116133
  H         4.5361840205        4.0707313803        4.2936210336
  H         4.8956214488        4.6729184636        4.2757636431
       8
 i =    16039, time =    16039.000, E =       -54.0476334236
  N         5.0526346176        6.1701021851        6.5323739016
  O         4.8555242006        5.0303163513        6.8349153159
  N         6.4733868097        5.9525316318        5.4783618641
  O         6.5045959717        6.3555782240        4.3753600925
  H         5.0902144878        8.2970495393        4.2935513069
  H         4.7638909569        8.0448636156        4.8651103177
  H         4.5415307787        4.0551961022        4.2612497571
  H         4.9072726507        4.6675116034        4.2806199727
       8
 i =    16040, time =    16040.000, E =       -54.0436439656
  N         5.0563449196        6.1759254614        6.5361406200
  O         4.8592172863        5.0278178045        6.8319225770
  N         6.4662262710        5.9480935489        5.4760322573
  O         6.5025344190        6.3547237180        4.3807007841
  H         5.0927780666        8.3183098382        4.3026256915
  H         4.7683279245        8.0784421947        4.8259292468
  H         4.5439212471        4.0356964051        4.2294679399
  H         4.9196723887        4.6647248052        4.2851208493
       8
 i =    16041, time =    16041.000, E =       -54.0453158298
  N         5.0597599590        6.1815419948        6.5402329609
  O         4.8630558919        5.0257004390        6.8286849773
  N         6.4593957683        5.9429846501        5.4747489566
  O         6.5003922509        6.3544074508        4.3851014135
  H         5.1130438102        8.3501659367        4.2855381736
  H         4.7551266486        8.1013321228        4.8132751372
  H         4.5481980403        4.0193546580        4.1974031163
  H         4.9285670482        4.6564188000        4.2889944418
       8
 i =    16042, time =    16042.000, E =       -54.0463537910
  N         5.0628107767        6.1867085186        6.5447022197
  O         4.8670566685        5.0241800301        6.8251628533
  N         6.4529463217        5.9371220376        5.4747050254
  O         6.4981718032        6.3547141535        4.3883757612
  H         5.1449650730        8.3877948850        4.2532967397
  H         4.7303129875        8.1181950466        4.8162483168
  H         4.5569162993        4.0105343298        4.1659272381
  H         4.9313070973        4.6381907681        4.2914247496
       8
 i =    16043, time =    16043.000, E =       -54.0434517571
  N         5.0654608034        6.1912475571        6.5495910215
  O         4.8712368166        5.0234219219        6.8213235032
  N         6.4468969447        5.9304703015        5.4759343361
  O         6.4958646331        6.3556830606        4.3904859979
  H         5.1730124289        8.4206303746        4.2281866083
  H         4.7095066512        8.1394127692        4.8126681774
  H         4.5689376110        4.0073423283        4.1350170419
  H         4.9289998446        4.6118182118        4.2923840040
       8
 i =    16044, time =    16044.000, E =       -54.0434627997
  N         5.0675907527        6.1948606074        6.5547183754
  O         4.8754321745        5.0235581475        6.8173085860
  N         6.4415025238        5.9233379129        5.4782439998
  O         6.4935481415        6.3572489184        4.3914670715
  H         5.1869912492        8.4421444339        4.2221064567
  H         4.7027546835        8.1691610953        4.7918319754
  H         4.5795324704        4.0027908393        4.1043373869
  H         4.9260315591        4.5854538938        4.2933879225
       8
 i =    16045, time =    16045.000, E =       -54.0470760773
  N         5.0692701901        6.1975921554        6.5602360641
  O         4.8797594291        5.0246366907        6.8130004430
  N         6.4366157146        5.9156106470        5.4814282409
  O         6.4911345354        6.3593733796        4.3915848689
  H         5.1866115235        8.4535918268        4.2342509919
  H         4.7106385106        8.2077986291        4.7536461065
  H         4.5850658364        3.9901004717        4.0706872944
  H         4.9263628999        4.5649820718        4.2967813738
       8
 i =    16046, time =    16046.000, E =       -54.0460701891
  N         5.0705342394        6.1994531174        6.5662100553
  O         4.8842522979        5.0266758348        6.8083550939
  N         6.4322016550        5.9073219455        5.4851796373
  O         6.4885737326        6.3619617874        4.3911393947
  H         5.1807723152        8.4611088912        4.2534077685
  H         4.7243649126        8.2500974882        4.7087976864
  H         4.5860722886        3.9699052475        4.0334362984
  H         4.9296235186        4.5493967263        4.3029417564
       8
 i =    16047, time =    16047.000, E =       -54.0437471148
  N         5.0713558720        6.2004161510        6.5723385846
  O         4.8886571476        5.0294988053        6.8036236410
  N         6.4284861665        5.8990349319        5.4889136692
  O         6.4859729498        6.3647303842        4.3904995621
  H         5.1900889108        8.4748852306        4.2574070778
  H         4.7228815349        8.2839188815        4.6804812586
  H         4.5868665021        3.9505377399        3.9973342227
  H         4.9314642245        4.5322373270        4.3088105989
       8
 i =    16048, time =    16048.000, E =       -54.0476544437
  N         5.0718052064        6.2006434453        6.5786845852
  O         4.8929911983        5.0329917574        6.7987772868
  N         6.4254075685        5.8907973753        5.4922861000
  O         6.4832820591        6.3675558533        4.3899973667
  H         5.2236766150        8.4986415624        4.2392951247
  H         4.6971357521        8.3066771892        4.6750969536
  H         4.5910442034        3.9377174949        3.9650632086
  H         4.9285361092        4.5073681779        4.3113989895
       8
 i =    16049, time =    16049.000, E =       -54.0463341571
  N         5.0719482533        6.2003498137        6.5850811972
  O         4.8971095218        5.0368756376        6.7939707654
  N         6.4230155368        5.8829424083        5.4948720561
  O         6.4805462570        6.3702397023        4.3899434499
  H         5.2606811415        8.5238591474        4.2178986644
  H         4.6678832321        8.3261054145        4.6742034370
  H         4.5988765889        3.9322338847        3.9379668726
  H         4.9206660893        4.4747066078        4.3099313237
       8
 i =    16050, time =    16050.000, E =       -54.0440189912
  N         5.0718689781        6.1998172591        6.5913983093
  O         4.9008961785        5.0408457503        6.7893354310
  N         6.4213214775        5.8757194301        5.4963608729
  O         6.4777947615        6.3726398707        4.3905671315
  H         5.2819793607        8.5440102293        4.2080867213
  H         4.6543412117        8.3480995758        4.6631681571